9
轮次1  Outer Iteration 0, Energy=-154.0791133506, |grad|=0.157325
C     -0.955964     0.056819     0.047139      0.052344     0.016252     0.009877
C      0.489892    -0.328419    -0.195930      0.014251     0.027987     0.000528
O      1.268139     0.332107     0.739696     -0.085885    -0.060028    -0.000872
H     -1.352851     0.724387    -0.723824     -0.002377    -0.001509     0.000819
H     -1.586672    -0.868323     0.015396     -0.008790    -0.033674    -0.008955
H     -1.077363     0.592524     1.011658     -0.005849     0.025669     0.017414
H      0.786045    -0.144784    -1.233537     -0.003865    -0.005645    -0.003381
H      0.582818    -1.430267    -0.046703     -0.009728    -0.029744    -0.002415
H      1.831611     1.053529     0.382976      0.049899     0.060692    -0.013015
9
轮次1  Outer Iteration 1, Energy=-154.0833144004, |grad|=0.098060
C     -1.007426     0.039685     0.034422     -0.012233    -0.016040     0.002443
C      0.486947    -0.293833    -0.144587     -0.005693     0.023210     0.013113
O      1.387266     0.325710     0.745482      0.050330     0.033738    -0.029822
H     -1.382166     0.712061    -0.744190     -0.005724    -0.003239    -0.003086
H     -1.643561    -0.845852    -0.005257     -0.006349     0.004766    -0.003041
H     -1.149587     0.532794     0.990765      0.004151     0.000102    -0.009400
H      0.786182    -0.082054    -1.174816      0.000432     0.000467     0.001460
H      0.633632    -1.366011    -0.006064      0.003747     0.001838    -0.000234
H      1.874367     0.965072     0.301113     -0.028662    -0.044843     0.028567
9
轮次1  Outer Iteration 2, Energy=-154.0856508374, |grad|=0.021381
C     -0.985626     0.046993     0.039375      0.001063    -0.004071     0.009143
C      0.489020    -0.321079    -0.166079      0.005128     0.006859     0.000244
O      1.327574     0.331621     0.753248     -0.008022    -0.007222     0.004754
H     -1.353475     0.727918    -0.733627     -0.002382    -0.002499    -0.001866
H     -1.623930    -0.838290     0.006903      0.000219     0.000109    -0.001927
H     -1.111950     0.543212     1.001789     -0.000441     0.005093    -0.002721
H      0.793832    -0.113308    -1.196098     -0.000966    -0.001394    -0.000735
H      0.621947    -1.396157    -0.025869     -0.000984    -0.001299    -0.003933
H      1.828262     1.006662     0.317228      0.006384     0.004425    -0.002959
9
轮次1  Outer Iteration 3, Energy=-154.0861121244, |grad|=0.013383
C     -0.982470     0.048850     0.032716     -0.000840     0.001020     0.001669
C      0.487670    -0.336356    -0.162704      0.002318    -0.003655     0.002054
O      1.321852     0.340142     0.745405     -0.001188     0.005467    -0.002375
H     -1.329232     0.758126    -0.723495     -0.001008    -0.001415    -0.002327
H     -1.634483    -0.825443    -0.006659      0.001187     0.000435     0.002853
H     -1.097516     0.512372     1.012415      0.000938     0.001698    -0.001665
H      0.801091    -0.122833    -1.188810      0.000518     0.003984     0.001249
H      0.628720    -1.407108    -0.007390      0.000552    -0.000595    -0.003581
H      1.790021     1.019823     0.295392     -0.002478    -0.006939     0.002123
9
轮次1  Outer Iteration 4, Energy=-154.0865808196, |grad|=0.010300
C     -0.982798     0.048349     0.030605     -0.001767     0.000239    -0.003156
C      0.486711    -0.338237    -0.158818     -0.001315    -0.002859     0.001878
O      1.333391     0.345929     0.735988     -0.001073     0.000382     0.002563
H     -1.316178     0.780723    -0.707861     -0.000134    -0.002124    -0.001696
H     -1.640686    -0.821532    -0.034821     -0.000616    -0.000613     0.004132
H     -1.104519     0.483494     1.023517      0.001143     0.001372    -0.000592
H      0.799341    -0.142704    -1.188922      0.000855     0.004564     0.001160
H      0.623804    -1.406254     0.016356      0.000019    -0.000592    -0.003132
H      1.786589     1.037804     0.280827      0.002888    -0.000368    -0.001157
9
轮次1  Outer Iteration 5, Energy=-154.0870707717, |grad|=0.011239
C     -0.979624     0.049664     0.031835     -0.000850     0.000042    -0.003311
C      0.487549    -0.340869    -0.157429     -0.001745    -0.001709    -0.000924
O      1.340503     0.350461     0.727125     -0.001360    -0.001093     0.005489
H     -1.303717     0.802210    -0.689313     -0.000073    -0.002907    -0.000880
H     -1.640140    -0.815863    -0.064227     -0.000776    -0.001090     0.003896
H     -1.111195     0.460823     1.034422      0.000351     0.002330    -0.000087
H      0.796624    -0.167393    -1.192700      0.000467     0.003585     0.000576
H      0.620833    -1.405553     0.037716     -0.000103    -0.000164    -0.002810
H      1.774821     1.054093     0.269443      0.004088     0.001006    -0.001949
9
轮次1  Outer Iteration 6, Energy=-154.0875718449, |grad|=0.011859
C     -0.974383     0.051520     0.035130      0.001471    -0.000521    -0.000520
C      0.489164    -0.344477    -0.155550     -0.000431    -0.000199    -0.002666
O      1.344957     0.354642     0.717692     -0.003611    -0.002187     0.006305
H     -1.290836     0.823294    -0.669293     -0.000859    -0.003098    -0.000545
H     -1.635609    -0.808801    -0.095289      0.000114    -0.001212     0.002659
H     -1.117240     0.441325     1.044957     -0.000549     0.003949    -0.000214
H      0.792821    -0.193762    -1.196086     -0.000161     0.002185     0.000144
H      0.618521    -1.406240     0.056984     -0.000207    -0.000069    -0.003052
H      1.758259     1.070072     0.258324      0.004234     0.001152    -0.002110
9
轮次1  Outer Iteration 7, Energy=-154.0880625169, |grad|=0.014287
C     -0.971046     0.052441     0.036679      0.001828    -0.000806    -0.000121
C      0.490301    -0.347757    -0.154083     -0.000384     0.000891    -0.005345
O      1.351425     0.359423     0.708418     -0.003224    -0.002418     0.008544
H     -1.276065     0.843631    -0.650280     -0.000627    -0.003819    -0.000103
H     -1.635999    -0.800179    -0.124010     -0.000148    -0.001321     0.002404
H     -1.122869     0.417941     1.054755     -0.001126     0.004500     0.000245
H      0.789895    -0.218352    -1.198949     -0.000485     0.001202    -0.000465
H      0.616970    -1.405496     0.077602     -0.000285     0.000388    -0.002781
H      1.743042     1.085920     0.246737      0.004450     0.001382    -0.002378
9
轮次1  Outer Iteration 8, Energy=-154.0882732854, |grad|=0.034671
C     -0.963323     0.051893     0.044300     -0.001449    -0.002604     0.011144
C      0.496243    -0.357108    -0.153076      0.009282     0.005791    -0.006984
O      1.341658     0.368622     0.702450     -0.000105     0.015787    -0.000138
H     -1.237578     0.863255    -0.636128      0.001221    -0.003047    -0.004503
H     -1.646578    -0.776701    -0.146548      0.000525     0.002340     0.002380
H     -1.112225     0.395887     1.067337     -0.000265     0.002779    -0.001976
H      0.788799    -0.244074    -1.204155     -0.001134    -0.000650    -0.003680
H      0.629017    -1.411527     0.089762      0.000324     0.000661    -0.003612
H      1.689642     1.097325     0.232928     -0.008400    -0.021058     0.007370
9
轮次1  Outer Iteration 9, Energy=-154.0884836242, |grad|=0.013220
C     -0.967499     0.052621     0.039921      0.000283    -0.001366     0.003829
C      0.492456    -0.353496    -0.151371      0.002603     0.002275    -0.005405
O      1.351830     0.364567     0.701158     -0.002642     0.001815     0.006402
H     -1.256450     0.860172    -0.636522     -0.000356    -0.003508    -0.001741
H     -1.640524    -0.787538    -0.146296     -0.000066    -0.000129     0.001977
H     -1.121114     0.399006     1.063320     -0.000470     0.004006    -0.000583
H      0.788215    -0.236899    -1.199342     -0.000667     0.000815    -0.001015
H      0.621202    -1.408709     0.091267      0.000193     0.000134    -0.003141
H      1.717539     1.097849     0.234736      0.001124    -0.004040    -0.000322
9
轮次1  Outer Iteration 10, Energy=-154.0886174486, |grad|=0.010542
C     -0.967599     0.053498     0.038455      0.000866    -0.000905     0.001788
C      0.491496    -0.353963    -0.149706      0.000750     0.000973    -0.003630
O      1.355250     0.365097     0.697275     -0.002687     0.000700     0.005136
H     -1.257935     0.865664    -0.631863     -0.001003    -0.003053    -0.001232
H     -1.637879    -0.788177    -0.152550      0.000183    -0.000886     0.002158
H     -1.123482     0.393121     1.064028     -0.000331     0.004042    -0.000482
H      0.788602    -0.239764    -1.197228     -0.000227     0.001676    -0.000220
H      0.618168    -1.408611     0.097010      0.000083    -0.000184    -0.003037
H      1.719034     1.100707     0.231449      0.002367    -0.002363    -0.000480
9
轮次1  Outer Iteration 11, Energy=-154.0887623753, |grad|=0.010155
C     -0.967072     0.053585     0.038143      0.000736    -0.001044     0.001240
C      0.491338    -0.355648    -0.147557      0.000381     0.000784    -0.001975
O      1.357031     0.366204     0.694069     -0.003400    -0.000902     0.004878
H     -1.253435     0.871476    -0.627457     -0.001130    -0.002665    -0.001571
H     -1.638782    -0.785378    -0.159802      0.000081    -0.000925     0.002295
H     -1.123652     0.385681     1.065900      0.000143     0.003668    -0.000628
H      0.788485    -0.243595    -1.195122     -0.000046     0.002373     0.000288
H      0.617629    -1.409699     0.102430      0.000076    -0.000449    -0.003105
H      1.714112     1.104947     0.226266      0.003159    -0.000840    -0.001421
9
轮次1  Outer Iteration 12, Energy=-154.0889023150, |grad|=0.009333
C     -0.966258     0.053877     0.038029      0.000289    -0.000906     0.001186
C      0.491502    -0.357952    -0.145936      0.000464     0.000077    -0.000554
O      1.357689     0.367972     0.690863     -0.003382    -0.000023     0.003510
H     -1.247923     0.877604    -0.623087     -0.001174    -0.002139    -0.002026
H     -1.639823    -0.781945    -0.166183      0.000164    -0.000874     0.002562
H     -1.122981     0.378531     1.067863      0.000531     0.003209    -0.000845
H      0.788850    -0.248265    -1.193772      0.000210     0.002942     0.000457
H      0.617583    -1.411453     0.107202      0.000034    -0.000846    -0.003309
H      1.707015     1.109203     0.221890      0.002863    -0.001439    -0.000981
9
轮次1  Outer Iteration 13, Energy=-154.0890373623, |grad|=0.009334
C     -0.965254     0.054089     0.038155      0.000092    -0.000684     0.000827
C      0.491791    -0.359898    -0.144596      0.000593    -0.000298     0.000149
O      1.358719     0.369279     0.688106     -0.003512     0.000037     0.003277
H     -1.242079     0.883093    -0.618398     -0.001025    -0.002095    -0.002108
H     -1.640709    -0.778481    -0.172890      0.000121    -0.000849     0.002711
H     -1.123240     0.371920     1.069925      0.000679     0.002998    -0.000788
H      0.788531    -0.253217    -1.193000      0.000264     0.003255     0.000489
H      0.617909    -1.412456     0.112022      0.000064    -0.000816    -0.003421
H      1.699987     1.113242     0.217545      0.002724    -0.001549    -0.001135
9
轮次1  Outer Iteration 14, Energy=-154.0891704681, |grad|=0.009320
C     -0.964270     0.054331     0.038349     -0.000026    -0.000564     0.000692
C      0.492087    -0.361682    -0.143676      0.000557    -0.000777     0.000383
O      1.360044     0.370650     0.685254     -0.003385     0.000493     0.003134
H     -1.237028     0.888382    -0.613595     -0.000970    -0.001995    -0.002161
H     -1.641211    -0.775264    -0.179484      0.000112    -0.000837     0.002804
H     -1.123876     0.365672     1.071844      0.000716     0.002877    -0.000771
H      0.788050    -0.258744    -1.192760      0.000291     0.003392     0.000456
H      0.617949    -1.413320     0.116792      0.000036    -0.000917    -0.003508
H      1.693909     1.117548     0.214145      0.002670    -0.001672    -0.001029
9
轮次1  Inner Iteration 1, |pred_grad|=0.009303
C     -0.964270     0.054331     0.038349     -0.000024    -0.000599     0.000691
C      0.492087    -0.361682    -0.143676      0.000557    -0.000739     0.000383
O      1.360044     0.370650     0.685254     -0.003419     0.000352     0.003031
H     -1.237028     0.888382    -0.613595     -0.000976    -0.001996    -0.002162
H     -1.641211    -0.775264    -0.179484      0.000113    -0.000837     0.002805
H     -1.123876     0.365672     1.071844      0.000715     0.002879    -0.000781
H      0.788050    -0.258744    -1.192760      0.000300     0.003392     0.000456
H      0.617949    -1.413320     0.116792      0.000041    -0.000916    -0.003507
H      1.693909     1.117548     0.214145      0.002668    -0.001705    -0.001061
9
轮次1  Inner Iteration 2, |pred_grad|=0.009304
C     -0.964269     0.054362     0.038313     -0.000024    -0.000596     0.000686
C      0.492058    -0.361644    -0.143695      0.000556    -0.000749     0.000389
O      1.360220     0.370631     0.685098     -0.003417     0.000357     0.003026
H     -1.236978     0.888485    -0.613484     -0.000975    -0.001995    -0.002163
H     -1.641216    -0.775221    -0.179628      0.000113    -0.000837     0.002807
H     -1.123913     0.365524     1.071884      0.000715     0.002878    -0.000780
H      0.788035    -0.258919    -1.192783      0.000300     0.003396     0.000457
H      0.617947    -1.413273     0.116972      0.000041    -0.000917    -0.003508
H      1.693771     1.117636     0.214200      0.002672    -0.001704    -0.001060
9
轮次1  Inner Iteration 3, |pred_grad|=0.009305
C     -0.964267     0.054393     0.038278     -0.000023    -0.000593     0.000680
C      0.492030    -0.361605    -0.143716      0.000556    -0.000758     0.000394
O      1.360396     0.370613     0.684942     -0.003415     0.000362     0.003020
H     -1.236927     0.888588    -0.613372     -0.000974    -0.001995    -0.002165
H     -1.641222    -0.775178    -0.179773      0.000113    -0.000837     0.002808
H     -1.123950     0.365375     1.071925      0.000715     0.002877    -0.000778
H      0.788019    -0.259094    -1.192807      0.000301     0.003400     0.000458
H      0.617945    -1.413226     0.117153      0.000040    -0.000918    -0.003508
H      1.693634     1.117723     0.214254      0.002676    -0.001703    -0.001059
9
轮次1  Inner Iteration 4, |pred_grad|=0.009305
C     -0.964266     0.054423     0.038243     -0.000023    -0.000590     0.000675
C      0.492001    -0.361566    -0.143736      0.000555    -0.000767     0.000400
O      1.360572     0.370594     0.684787     -0.003413     0.000368     0.003015
H     -1.236877     0.888691    -0.613261     -0.000973    -0.001994    -0.002166
H     -1.641228    -0.775135    -0.179918      0.000114    -0.000837     0.002810
H     -1.123987     0.365227     1.071965      0.000715     0.002876    -0.000777
H      0.788004    -0.259269    -1.192830      0.000302     0.003404     0.000459
H      0.617943    -1.413179     0.117334      0.000040    -0.000918    -0.003509
H      1.693496     1.117811     0.214309      0.002680    -0.001702    -0.001058
9
轮次1  Inner Iteration 5, |pred_grad|=0.009306
C     -0.964265     0.054454     0.038208     -0.000023    -0.000587     0.000670
C      0.491973    -0.361527    -0.143756      0.000554    -0.000776     0.000405
O      1.360748     0.370575     0.684631     -0.003411     0.000373     0.003009
H     -1.236827     0.888793    -0.613149     -0.000971    -0.001993    -0.002168
H     -1.641234    -0.775092    -0.180062      0.000114    -0.000837     0.002811
H     -1.124024     0.365079     1.072005      0.000715     0.002875    -0.000776
H      0.787988    -0.259444    -1.192854      0.000302     0.003407     0.000459
H      0.617941    -1.413131     0.117514      0.000040    -0.000919    -0.003510
H      1.693358     1.117899     0.214363      0.002684    -0.001701    -0.001057
9
轮次2  Outer Iteration 0, Energy=-154.0891919982, |grad|=0.008951
C     -0.964264     0.054484     0.038174     -0.000003    -0.000450     0.000244
C      0.491944    -0.361487    -0.143777      0.000075    -0.000248     0.000176
O      1.360923     0.370556     0.684476     -0.002618     0.001609     0.002376
H     -1.236777     0.888896    -0.613037     -0.000873    -0.002200    -0.001992
H     -1.641240    -0.775049    -0.180207      0.000012    -0.000924     0.002827
H     -1.124060     0.364931     1.072045      0.000706     0.002873    -0.000613
H      0.787973    -0.259620    -1.192878      0.000329     0.003333     0.000561
H      0.617939    -1.413084     0.117695      0.000163    -0.001164    -0.003358
H      1.693219     1.117986     0.214418      0.002209    -0.002829    -0.000222
9
轮次2  Outer Iteration 1, Energy=-154.0902079950, |grad|=0.010824
C     -0.956422     0.057026     0.039966     -0.001379     0.001163     0.000024
C      0.495733    -0.374694    -0.137481      0.002438    -0.003982     0.000995
O      1.371300     0.380913     0.661464     -0.003791     0.001384     0.003156
H     -1.201771     0.929347    -0.571666     -0.001371    -0.001702    -0.001771
H     -1.642893    -0.747757    -0.233688      0.000054    -0.000564     0.002901
H     -1.130530     0.315880     1.085513      0.000815     0.002250    -0.000744
H      0.785443    -0.305903    -1.191182      0.000366     0.003548     0.000756
H      0.618087    -1.417880     0.155949     -0.000118    -0.001386    -0.003913
H      1.646711     1.150683     0.188033      0.002986    -0.000712    -0.001405
9
轮次2  Outer Iteration 2, Energy=-154.0911186270, |grad|=0.008106
C     -0.950253     0.057946     0.042974     -0.001595    -0.001757     0.000177
C      0.496993    -0.379264    -0.132890      0.000409     0.002231    -0.000264
O      1.388971     0.385242     0.636307     -0.001612     0.000086     0.003446
H     -1.167387     0.961982    -0.532672      0.000270    -0.001449    -0.001951
H     -1.639384    -0.724463    -0.285148     -0.000519    -0.001014     0.002199
H     -1.142612     0.270159     1.096185      0.000902     0.001952    -0.000190
H      0.776258    -0.348377    -1.191899      0.000167     0.002560     0.000036
H      0.617334    -1.411278     0.196497      0.000229     0.000139    -0.002147
H      1.605736     1.175668     0.167554      0.001748    -0.002748    -0.001306
9
轮次2  Outer Iteration 3, Energy=-154.0918597688, |grad|=0.009307
C     -0.936763     0.062875     0.046048      0.002388     0.001665     0.001146
C      0.500548    -0.395489    -0.130794     -0.000018    -0.003450    -0.000320
O      1.397552     0.391935     0.607458     -0.005024     0.002457     0.001340
H     -1.131199     0.994825    -0.492737     -0.000910    -0.000769    -0.001104
H     -1.630434    -0.693352    -0.329965      0.001250    -0.001269     0.001284
H     -1.146008     0.233704     1.103887      0.000186     0.002063     0.000212
H      0.769081    -0.397769    -1.193409     -0.000127     0.002232    -0.000135
H      0.618045    -1.418345     0.229222     -0.000078    -0.001650    -0.002262
H      1.544836     1.209231     0.157199      0.002332    -0.001280    -0.000161
9
轮次2  Outer Iteration 4, Energy=-154.0923753782, |grad|=0.008590
C     -0.933258     0.062842     0.045838     -0.001190    -0.002035    -0.002456
C      0.504729    -0.400897    -0.123276     -0.001455     0.000769     0.004535
O      1.426028     0.394470     0.575950      0.001758    -0.001854     0.001920
H     -1.105982     1.020040    -0.455361     -0.000906    -0.000568    -0.000794
H     -1.635309    -0.662744    -0.373094     -0.001734     0.000285     0.001176
H     -1.159265     0.190720     1.105697      0.001141     0.000483    -0.000811
H      0.763699    -0.437092    -1.187689      0.000470     0.002012     0.000583
H      0.621641    -1.413103     0.264544      0.000309    -0.000953    -0.002037
H      1.503374     1.233378     0.144298      0.001607     0.001859    -0.002115
9
轮次2  Outer Iteration 5, Energy=-154.0926355786, |grad|=0.009772
C     -0.919762     0.067802     0.050070      0.000004     0.000402     0.002975
C      0.510217    -0.412082    -0.131682      0.002300     0.002888    -0.005848
O      1.430376     0.397715     0.546971     -0.002220    -0.001567     0.003501
H     -1.064059     1.045459    -0.420165      0.001151    -0.000317    -0.000569
H     -1.624904    -0.631488    -0.406087      0.000417    -0.000593     0.000662
H     -1.159626     0.161429     1.111180     -0.000876     0.000356     0.000409
H      0.757968    -0.488336    -1.197456      0.000128    -0.000863    -0.000879
H      0.624673    -1.406913     0.296818      0.000301     0.002092     0.000871
H      1.430776     1.254029     0.147259     -0.001205    -0.002398    -0.001123
9
轮次2  Outer Iteration 6, Energy=-154.0927012887, |grad|=0.006481
C     -0.916814     0.068242     0.050236      0.000293    -0.000252    -0.000912
C      0.510168    -0.417757    -0.124204     -0.001366    -0.001569     0.002064
O      1.445831     0.403882     0.521483     -0.000171     0.003907    -0.002497
H     -1.051478     1.056924    -0.399925      0.000344     0.000235    -0.000035
H     -1.618040    -0.617321    -0.432352      0.000562    -0.000519    -0.000695
H     -1.167290     0.141280     1.110593      0.000749     0.000048     0.000501
H      0.744376    -0.509188    -1.191459     -0.000740     0.000393     0.000014
H      0.624401    -1.409448     0.314392     -0.000724    -0.000819    -0.000358
H      1.414502     1.271000     0.148143      0.001054    -0.001425     0.001919
9
轮次2  Outer Iteration 7, Energy=-154.0927155458, |grad|=0.003106
C     -0.917598     0.068762     0.050065      0.000263     0.000396    -0.000017
C      0.511212    -0.417133    -0.125612     -0.000343     0.000068     0.000234
O      1.444572     0.401160     0.525717     -0.000092    -0.002224     0.000142
H     -1.057432     1.056454    -0.400360     -0.000631    -0.000060     0.000214
H     -1.622457    -0.615878    -0.427985     -0.000040     0.000296     0.000097
H     -1.169250     0.143081     1.109700     -0.000295     0.000118    -0.000252
H      0.752085    -0.507099    -1.191510      0.000579     0.000056     0.000185
H      0.628178    -1.408660     0.312381      0.000713    -0.000114     0.000093
H      1.416347     1.266928     0.144511     -0.000154     0.001464    -0.000698
9
轮次2  Outer Iteration 8, Energy=-154.0927181387, |grad|=0.001408
C     -0.917530     0.067916     0.049840     -0.000027    -0.000330     0.000079
C      0.511523    -0.416270    -0.126043      0.000597     0.000300    -0.000423
O      1.442898     0.402629     0.528636      0.000346     0.000466     0.000607
H     -1.055445     1.054915    -0.402756      0.000184    -0.000062    -0.000082
H     -1.622903    -0.617943    -0.425979     -0.000234     0.000068     0.000163
H     -1.166739     0.143636     1.109999     -0.000036    -0.000099    -0.000070
H      0.750960    -0.505286    -1.192383     -0.000251    -0.000177    -0.000124
H      0.625174    -1.408413     0.310821     -0.000437     0.000061    -0.000065
H      1.417720     1.266430     0.144773     -0.000142    -0.000226    -0.000086
9
轮次2  Outer Iteration 9, Energy=-154.0927191792, |grad|=0.000683
C     -0.917848     0.068296     0.050060     -0.000095     0.000107    -0.000019
C      0.510806    -0.416633    -0.125597     -0.000140    -0.000108     0.000107
O      1.443048     0.402236     0.527174     -0.000143     0.000246    -0.000301
H     -1.055475     1.055727    -0.401790      0.000070     0.000064    -0.000043
H     -1.621796    -0.617756    -0.427601      0.000085    -0.000106    -0.000065
H     -1.167542     0.143196     1.110254      0.000089    -0.000013     0.000092
H      0.750433    -0.505493    -1.191871      0.000031     0.000106     0.000029
H      0.626342    -1.408360     0.311826      0.000079     0.000062     0.000032
H      1.417690     1.266402     0.144454      0.000025    -0.000358     0.000168
9
轮次2  Inner Iteration 1, |pred_grad|=0.000432
C     -0.917848     0.068296     0.050060      0.000021    -0.000017    -0.000102
C      0.510806    -0.416633    -0.125597     -0.000069    -0.000071     0.000061
O      1.443048     0.402236     0.527174      0.000035     0.000081    -0.000297
H     -1.055475     1.055727    -0.401790     -0.000035     0.000031    -0.000005
H     -1.621796    -0.617756    -0.427601     -0.000017    -0.000028    -0.000062
H     -1.167542     0.143196     1.110254      0.000023    -0.000017     0.000020
H      0.750433    -0.505493    -1.191871     -0.000006     0.000027     0.000031
H      0.626342    -1.408360     0.311826     -0.000019    -0.000121    -0.000021
H      1.417690     1.266402     0.144454      0.000194    -0.000032     0.000043
9
轮次2  Inner Iteration 2, |pred_grad|=0.000432
C     -0.917848     0.068296     0.050061      0.000021    -0.000017    -0.000102
C      0.510806    -0.416632    -0.125598     -0.000069    -0.000071     0.000060
O      1.443047     0.402235     0.527176      0.000035     0.000081    -0.000297
H     -1.055475     1.055726    -0.401790     -0.000035     0.000031    -0.000005
H     -1.621796    -0.617756    -0.427600     -0.000017    -0.000028    -0.000062
H     -1.167542     0.143196     1.110254      0.000023    -0.000017     0.000019
H      0.750433    -0.505493    -1.191871     -0.000006     0.000027     0.000031
H      0.626342    -1.408359     0.311826     -0.000019    -0.000121    -0.000021
H      1.417689     1.266403     0.144453      0.000194    -0.000032     0.000043
9
轮次2  Inner Iteration 3, |pred_grad|=0.000432
C     -0.917848     0.068296     0.050062      0.000021    -0.000017    -0.000102
C      0.510807    -0.416632    -0.125598     -0.000069    -0.000071     0.000060
O      1.443047     0.402234     0.527178      0.000035     0.000081    -0.000297
H     -1.055475     1.055726    -0.401790     -0.000035     0.000031    -0.000005
H     -1.621796    -0.617756    -0.427600     -0.000017    -0.000028    -0.000062
H     -1.167542     0.143197     1.110254      0.000023    -0.000017     0.000019
H      0.750433    -0.505494    -1.191871     -0.000006     0.000027     0.000031
H      0.626342    -1.408359     0.311826     -0.000019    -0.000121    -0.000021
H      1.417688     1.266403     0.144453      0.000194    -0.000032     0.000043
9
轮次2  Inner Iteration 4, |pred_grad|=0.000432
C     -0.917848     0.068296     0.050062      0.000021    -0.000017    -0.000102
C      0.510807    -0.416631    -0.125599     -0.000069    -0.000071     0.000060
O      1.443047     0.402234     0.527180      0.000035     0.000081    -0.000297
H     -1.055475     1.055726    -0.401790     -0.000035     0.000031    -0.000005
H     -1.621796    -0.617756    -0.427599     -0.000017    -0.000028    -0.000062
H     -1.167543     0.143197     1.110254      0.000023    -0.000017     0.000019
H      0.750433    -0.505494    -1.191872     -0.000006     0.000027     0.000031
H      0.626342    -1.408358     0.311826     -0.000019    -0.000121    -0.000021
H      1.417686     1.266403     0.144453      0.000194    -0.000032     0.000043
9
轮次2  Inner Iteration 5, |pred_grad|=0.000432
C     -0.917848     0.068297     0.050063      0.000021    -0.000017    -0.000102
C      0.510808    -0.416631    -0.125599     -0.000069    -0.000071     0.000060
O      1.443047     0.402233     0.527182      0.000035     0.000080    -0.000297
H     -1.055474     1.055726    -0.401790     -0.000035     0.000031    -0.000005
H     -1.621796    -0.617755    -0.427599     -0.000017    -0.000028    -0.000062
H     -1.167543     0.143197     1.110254      0.000023    -0.000017     0.000019
H      0.750433    -0.505494    -1.191872     -0.000006     0.000027     0.000031
H      0.626342    -1.408357     0.311826     -0.000019    -0.000121    -0.000021
H      1.417685     1.266403     0.144452      0.000194    -0.000032     0.000043
9
轮次3  Outer Iteration 0, Energy=-154.0927191845, |grad|=0.000655
C     -0.917848     0.068297     0.050064     -0.000100     0.000107    -0.000011
C      0.510808    -0.416630    -0.125600     -0.000135    -0.000103     0.000098
O      1.443046     0.402233     0.527184     -0.000141     0.000226    -0.000286
H     -1.055474     1.055725    -0.401790      0.000071     0.000063    -0.000043
H     -1.621796    -0.617755    -0.427599      0.000086    -0.000106    -0.000065
H     -1.167543     0.143197     1.110253      0.000089    -0.000014     0.000087
H      0.750433    -0.505494    -1.191872      0.000029     0.000104     0.000030
H      0.626343    -1.408356     0.311826      0.000080     0.000064     0.000033
H      1.417683     1.266404     0.144452      0.000022    -0.000342     0.000158
