9
轮次1  Outer Iteration 0, Energy=-265.2719208368, |grad|=1.812597
O     -1.416218     1.506380    -0.357246     -0.058458     0.387674    -0.014212
C     -1.200746     0.001482    -0.221410      0.996514    -0.709214    -0.115647
C     -0.103718    -0.391888    -0.194057     -0.948904     0.608717     0.017305
C      1.210112     0.169546     0.551259     -0.174455    -0.178422     0.260874
O      2.417665    -0.143657     0.156891      0.321926    -0.046104    -0.146765
H     -2.237921    -0.476489     0.361065     -0.125724    -0.039011     0.102531
H      0.011154    -1.602647     0.309513      0.032800    -0.119333     0.061448
H      0.195634    -0.741680    -1.389773      0.019519    -0.052636    -0.124801
H      0.837120     1.430402     0.721152     -0.063218     0.148328    -0.040734
9
轮次1  Outer Iteration 1, Energy=-265.4056510442, |grad|=1.168380
O     -1.470583     1.481170    -0.352238     -0.059205     0.402967    -0.013092
C     -1.273004     0.032717    -0.217110      0.491132    -0.550719    -0.127266
C     -0.059687    -0.412716    -0.200052     -0.447132     0.424085     0.039173
C      1.237736     0.167607     0.535028     -0.093383    -0.196504     0.230152
O      2.403253    -0.129552     0.169896      0.234134    -0.019762    -0.119755
H     -2.290205    -0.430617     0.359027     -0.122106    -0.026563     0.096411
H      0.049359    -1.605629     0.294072      0.039261    -0.119860     0.057304
H      0.234605    -0.757567    -1.376676      0.017579    -0.053954    -0.121932
H      0.881609     1.406037     0.725446     -0.060278     0.140309    -0.040995
9
轮次1  Outer Iteration 2, Energy=-265.5006528107, |grad|=0.934336
O     -1.460132     1.403615    -0.342115     -0.044635     0.339835    -0.002792
C     -1.292912     0.057311    -0.208769      0.346078    -0.470940    -0.129577
C     -0.041413    -0.425909    -0.212371     -0.311590     0.372191     0.040550
C      1.230680     0.179449     0.509230      0.022205    -0.216847     0.176088
O      2.351056    -0.105095     0.187466      0.087035     0.020960    -0.074295
H     -2.274084    -0.388799     0.360499     -0.102376    -0.007989     0.086177
H      0.045047    -1.588386     0.267960      0.035275    -0.110661     0.049371
H      0.246899    -0.764160    -1.355990      0.013913    -0.052669    -0.107149
H      0.907944     1.383422     0.731484     -0.045905     0.126121    -0.038374
9
轮次1  Outer Iteration 3, Energy=-265.5691673279, |grad|=0.652483
O     -1.465065     1.328401    -0.336344     -0.022869     0.166655     0.019488
C     -1.317557     0.089085    -0.200153      0.204200    -0.288412    -0.131957
C     -0.026171    -0.438427    -0.223893     -0.200862     0.311927     0.029633
C      1.219996     0.193303     0.486065      0.036794    -0.197823     0.151478
O      2.340790    -0.092992     0.201021      0.052879     0.027941    -0.058761
H     -2.257216    -0.352035     0.360722     -0.075130     0.014918     0.070459
H      0.034859    -1.564052     0.242379      0.029728    -0.094302     0.038017
H      0.259456    -0.768005    -1.329569      0.010535    -0.049221    -0.083798
H      0.923992     1.356171     0.737165     -0.035276     0.108318    -0.034558
9
轮次1  Outer Iteration 4, Energy=-265.6108205537, |grad|=0.417749
O     -1.468852     1.303116    -0.341921     -0.006786     0.030280     0.033089
C     -1.327020     0.118445    -0.185332      0.097955    -0.128392    -0.116670
C     -0.011023    -0.461291    -0.236882     -0.110707     0.228905     0.010355
C      1.196408     0.212030     0.453924      0.057142    -0.164670     0.116996
O      2.312237    -0.080075     0.218427     -0.007075     0.039276    -0.038002
H     -2.211063    -0.343491     0.368828     -0.040792     0.025260     0.050888
H      0.018499    -1.537862     0.215152      0.022205    -0.064781     0.019606
H      0.271814    -0.778101    -1.297633      0.005179    -0.042147    -0.045592
H      0.932085     1.318678     0.742830     -0.017121     0.076268    -0.030670
9
轮次1  Outer Iteration 5, Energy=-265.6342798670, |grad|=0.258357
O     -1.472271     1.317325    -0.356589     -0.006458     0.042873     0.020512
C     -1.328935     0.138684    -0.162702      0.037571    -0.105518    -0.073472
C     -0.000092    -0.488582    -0.244827     -0.049530     0.134746    -0.006093
C      1.172941     0.235234     0.417092     -0.007434    -0.092148     0.094474
O      2.306446    -0.075102     0.234240      0.027972     0.020427    -0.033100
H     -2.168935    -0.355744     0.374456     -0.013222     0.022247     0.032383
H      0.000308    -1.519162     0.199769      0.013914    -0.029703    -0.000335
H      0.278435    -0.785206    -1.274741      0.000917    -0.032015    -0.008900
H      0.925187     1.284002     0.750696     -0.003729     0.039091    -0.025470
9
轮次1  Outer Iteration 6, Energy=-265.6468374699, |grad|=0.141589
O     -1.466533     1.311670    -0.377856      0.001736    -0.006215     0.017086
C     -1.320596     0.159695    -0.135650      0.012318    -0.028539    -0.046234
C      0.009042    -0.503845    -0.241253     -0.017417     0.076327    -0.003694
C      1.168998     0.256590     0.380166      0.027968    -0.053824     0.057565
O      2.284040    -0.086544     0.240283     -0.029161     0.021928    -0.017728
H     -2.148879    -0.377824     0.366929     -0.005330     0.012037     0.020295
H     -0.011040    -1.507888     0.216480      0.005564    -0.012640    -0.005223
H      0.275253    -0.764873    -1.276664      0.003452    -0.021997    -0.003332
H      0.922800     1.264468     0.764958      0.000869     0.012924    -0.018734
9
轮次1  Outer Iteration 7, Energy=-265.6522015461, |grad|=0.093907
O     -1.472209     1.312033    -0.405933     -0.003439     0.016394     0.000579
C     -1.316702     0.167934    -0.111867      0.015720    -0.033364    -0.014321
C      0.007047    -0.517057    -0.234502     -0.023404     0.044473    -0.002527
C      1.179985     0.272152     0.337827     -0.031130    -0.015581     0.014116
O      2.314366    -0.092890     0.254730      0.045538    -0.006144    -0.007002
H     -2.151775    -0.394630     0.346258     -0.004951     0.004346     0.010990
H     -0.011901    -1.512951     0.244516      0.000221    -0.016013     0.001238
H      0.239032    -0.739072    -1.286398      0.004981    -0.010539    -0.004965
H      0.925240     1.255931     0.792762     -0.003535     0.016428     0.001893
9
轮次1  Outer Iteration 8, Energy=-265.6517128822, |grad|=0.118445
O     -1.442464     1.324179    -0.384063      0.003102    -0.017069     0.001656
C     -1.310715     0.188212    -0.092996     -0.034732     0.030642     0.002596
C      0.019380    -0.553345    -0.213842      0.024302    -0.058450    -0.015189
C      1.161043     0.274426     0.333926     -0.033991     0.029127     0.031074
O      2.289177    -0.089479     0.239510      0.011972    -0.005954    -0.010832
H     -2.122865    -0.419383     0.290727      0.027616     0.004952    -0.005158
H     -0.008862    -1.502461     0.266936      0.000874     0.033844    -0.016283
H      0.220288    -0.705221    -1.255527     -0.005115     0.007808     0.028747
H      0.908102     1.234522     0.752721      0.005973    -0.024900    -0.016611
9
轮次1  Outer Iteration 9, Energy=-265.6538216118, |grad|=0.051076
O     -1.457705     1.315392    -0.401656     -0.001338     0.013189    -0.004584
C     -1.312238     0.173977    -0.098587      0.002541    -0.013587    -0.000960
C      0.014229    -0.530391    -0.220624     -0.000248     0.005505    -0.002518
C      1.179384     0.277011     0.327935      0.026781    -0.014510     0.007141
O      2.290473    -0.096132     0.248129     -0.031744     0.012399    -0.001605
H     -2.149866    -0.414398     0.312044      0.001305    -0.000681     0.004833
H     -0.004671    -1.507785     0.266403     -0.000853    -0.001054    -0.000907
H      0.222317    -0.714362    -1.278144      0.001827    -0.000870     0.000729
H      0.931162     1.248138     0.781894      0.001728    -0.000391    -0.002128
9
轮次1  Outer Iteration 10, Energy=-265.6541791927, |grad|=0.045049
O     -1.451353     1.311741    -0.372064      0.003316    -0.028471     0.005047
C     -1.315906     0.174464    -0.093604     -0.007330     0.024821    -0.007677
C      0.016312    -0.531988    -0.213804      0.003169    -0.002711    -0.001071
C      1.182532     0.282985     0.320109     -0.010262     0.007057     0.007649
O      2.302271    -0.104598     0.253710      0.010928    -0.004897    -0.003786
H     -2.166326    -0.418794     0.278178      0.001362     0.003128     0.002742
H      0.002433    -1.503788     0.275629     -0.001077     0.003629    -0.002599
H      0.212695    -0.713717    -1.273299      0.001251     0.001040     0.001583
H      0.930426     1.255145     0.762539     -0.001356    -0.003596    -0.001889
9
轮次1  Outer Iteration 11, Energy=-265.6545748135, |grad|=0.009815
O     -1.450194     1.322724    -0.348063     -0.001785     0.001795    -0.003409
C     -1.313802     0.172461    -0.088383      0.003579    -0.003331     0.001254
C      0.014281    -0.531451    -0.210402     -0.003048     0.001915    -0.000604
C      1.185770     0.286051     0.311769     -0.001899    -0.000388    -0.000227
O      2.301778    -0.107837     0.263604      0.003539    -0.000887    -0.000568
H     -2.173495    -0.430259     0.248842     -0.000985     0.001340     0.002330
H      0.008821    -1.506073     0.283198     -0.000060    -0.001945    -0.000501
H      0.200585    -0.721184    -1.272474      0.001384     0.000309    -0.000620
H      0.939340     1.267018     0.749302     -0.000724     0.001192     0.002346
9
轮次1  Outer Iteration 12, Energy=-265.6549078413, |grad|=0.010938
O     -1.438289     1.334135    -0.295543      0.000842     0.005407    -0.002648
C     -1.314750     0.171389    -0.087738     -0.002973    -0.005047    -0.001440
C      0.014180    -0.535169    -0.206442     -0.000011    -0.002463    -0.000419
C      1.185114     0.288507     0.304654     -0.000714    -0.001757    -0.001090
O      2.299707    -0.108927     0.277537     -0.000306     0.002447     0.000198
H     -2.176510    -0.447642     0.208479      0.002031    -0.000043     0.003409
H      0.001427    -1.505139     0.293276     -0.001477    -0.000284    -0.000538
H      0.198130    -0.727852    -1.267275      0.001241     0.002003     0.000972
H      0.944076     1.282147     0.710445      0.001367    -0.000264     0.001555
9
轮次1  Outer Iteration 13, Energy=-265.6552459431, |grad|=0.009665
O     -1.443726     1.338423    -0.252562      0.000145    -0.000611    -0.003427
C     -1.316217     0.171991    -0.079651     -0.002270     0.001477     0.003134
C      0.015325    -0.530520    -0.198718      0.001287    -0.002200    -0.002256
C      1.190814     0.290895     0.302009      0.002919    -0.001295     0.003085
O      2.299422    -0.121699     0.284276     -0.003752     0.001970    -0.001629
H     -2.184065    -0.463558     0.158986      0.001368    -0.000035     0.001322
H      0.003332    -1.497998     0.304888     -0.001381     0.000448    -0.000829
H      0.192074    -0.732725    -1.259531      0.001429     0.001383     0.000686
H      0.956126     1.296640     0.677696      0.000255    -0.001138    -0.000086
9
轮次1  Outer Iteration 14, Energy=-265.6554935099, |grad|=0.015011
O     -1.450691     1.341619    -0.207485     -0.002109    -0.006353    -0.000256
C     -1.316463     0.171193    -0.082984      0.002115     0.006135    -0.004840
C      0.017428    -0.525495    -0.196663      0.001711    -0.001672     0.003752
C      1.195583     0.297262     0.291238      0.005077     0.003733    -0.001206
O      2.295753    -0.138706     0.301152     -0.004147    -0.002276    -0.000766
H     -2.189496    -0.470990     0.123379     -0.001006     0.001522     0.003369
H      0.014407    -1.488759     0.314971      0.000246     0.000233    -0.001215
H      0.184319    -0.743578    -1.257407      0.000594     0.000788    -0.000530
H      0.962243     1.308903     0.651192     -0.002482    -0.002110     0.001692
9
轮次1  Inner Iteration 1, |pred_grad|=0.013359
O     -1.450691     1.341619    -0.207485     -0.002013    -0.005979    -0.000461
C     -1.316463     0.171193    -0.082984      0.001853     0.004898    -0.003515
C      0.017428    -0.525495    -0.196663      0.001711    -0.001664     0.003751
C      1.195583     0.297262     0.291238      0.004941     0.001985    -0.001197
O      2.295753    -0.138706     0.301152     -0.004053    -0.001874    -0.000768
H     -2.189496    -0.470990     0.123379     -0.001006     0.001432     0.003179
H      0.014407    -1.488759     0.314971      0.000223     0.000233    -0.001215
H      0.184319    -0.743578    -1.257407      0.000595     0.000783    -0.000529
H      0.962243     1.308903     0.651192     -0.002299    -0.002109     0.001690
9
轮次1  Inner Iteration 2, |pred_grad|=0.013325
O     -1.450547     1.342048    -0.207452     -0.002016    -0.005982    -0.000456
C     -1.316596     0.170842    -0.082731      0.001880     0.004893    -0.003490
C      0.017305    -0.525375    -0.196932      0.001640    -0.001584     0.003757
C      1.195228     0.297119     0.291323      0.004939     0.001968    -0.001160
O      2.296044    -0.138571     0.301207     -0.004050    -0.001876    -0.000782
H     -2.189424    -0.471093     0.123151     -0.000996     0.001436     0.003185
H      0.014391    -1.488776     0.315058      0.000230     0.000210    -0.001217
H      0.184277    -0.743634    -1.257369      0.000592     0.000769    -0.000520
H      0.962408     1.309054     0.651071     -0.002301    -0.002057     0.001696
9
轮次1  Inner Iteration 3, |pred_grad|=0.013291
O     -1.450402     1.342477    -0.207419     -0.002018    -0.005984    -0.000450
C     -1.316730     0.170491    -0.082481      0.001906     0.004885    -0.003464
C      0.017188    -0.525262    -0.197201      0.001570    -0.001507     0.003762
C      1.194874     0.296979     0.291406      0.004937     0.001952    -0.001124
O      2.296334    -0.138437     0.301263     -0.004045    -0.001878    -0.000797
H     -2.189352    -0.471195     0.122923     -0.000986     0.001440     0.003191
H      0.014375    -1.488791     0.315146      0.000236     0.000188    -0.001219
H      0.184234    -0.743689    -1.257332      0.000590     0.000756    -0.000510
H      0.962573     1.309201     0.650949     -0.002304    -0.002007     0.001701
9
轮次1  Inner Iteration 4, |pred_grad|=0.013255
O     -1.450258     1.342904    -0.207387     -0.002020    -0.005985    -0.000444
C     -1.316867     0.170142    -0.082234      0.001932     0.004875    -0.003439
C      0.017076    -0.525154    -0.197470      0.001501    -0.001433     0.003765
C      1.194522     0.296839     0.291487      0.004933     0.001936    -0.001088
O      2.296623    -0.138303     0.301320     -0.004039    -0.001879    -0.000811
H     -2.189282    -0.471298     0.122695     -0.000976     0.001444     0.003196
H      0.014358    -1.488804     0.315233      0.000242     0.000167    -0.001221
H      0.184192    -0.743743    -1.257296      0.000588     0.000744    -0.000500
H      0.962738     1.309345     0.650828     -0.002305    -0.001957     0.001706
9
轮次1  Inner Iteration 5, |pred_grad|=0.013219
O     -1.450114     1.343331    -0.207355     -0.002022    -0.005984    -0.000438
C     -1.317004     0.169795    -0.081989      0.001957     0.004862    -0.003413
C      0.016969    -0.525052    -0.197738      0.001434    -0.001362     0.003768
C      1.194170     0.296701     0.291564      0.004929     0.001922    -0.001054
O      2.296911    -0.138169     0.301378     -0.004032    -0.001878    -0.000826
H     -2.189212    -0.471401     0.122467     -0.000966     0.001448     0.003201
H      0.014341    -1.488816     0.315320      0.000248     0.000146    -0.001224
H      0.184150    -0.743796    -1.257260      0.000586     0.000732    -0.000489
H      0.962902     1.309484     0.650706     -0.002307    -0.001908     0.001711
9
轮次2  Outer Iteration 0, Energy=-265.6554935099, |grad|=0.015011
O     -1.450691     1.341619    -0.207485     -0.002109    -0.006353    -0.000256
C     -1.316463     0.171193    -0.082984      0.002115     0.006135    -0.004840
C      0.017428    -0.525495    -0.196663      0.001711    -0.001672     0.003752
C      1.195583     0.297262     0.291238      0.005077     0.003733    -0.001206
O      2.295753    -0.138706     0.301152     -0.004147    -0.002276    -0.000766
H     -2.189496    -0.470990     0.123379     -0.001006     0.001522     0.003369
H      0.014407    -1.488759     0.314971      0.000246     0.000233    -0.001215
H      0.184319    -0.743578    -1.257407      0.000594     0.000788    -0.000530
H      0.962243     1.308903     0.651192     -0.002482    -0.002110     0.001692
9
轮次2  Outer Iteration 1, Energy=-265.6551541002, |grad|=0.048485
O     -1.424718     1.349193    -0.128673      0.003089     0.014534    -0.009039
C     -1.317347     0.166054    -0.055124     -0.001433    -0.014503     0.019284
C      0.011664    -0.534615    -0.180623     -0.002869     0.003822    -0.015717
C      1.190677     0.289654     0.308460     -0.010408    -0.011776     0.025898
O      2.304231    -0.119193     0.300060      0.007791     0.005638    -0.008589
H     -2.204201    -0.483836     0.028480     -0.000005    -0.002128    -0.003949
H      0.001310    -1.499885     0.328939     -0.000675     0.000869     0.000267
H      0.177424    -0.749697    -1.241652      0.001290    -0.000383    -0.000336
H      0.974044     1.333774     0.577525      0.003219     0.003926    -0.007820
9
轮次2  Outer Iteration 2, Energy=-265.6558355051, |grad|=0.012482
O     -1.436359     1.347374    -0.150384      0.001450     0.005358    -0.002792
C     -1.317720     0.168209    -0.073735     -0.001818    -0.006125     0.001527
C      0.013548    -0.530142    -0.191390     -0.002454     0.000697    -0.002160
C      1.194467     0.296727     0.287517     -0.003875    -0.002998     0.000296
O      2.300577    -0.128752     0.315231      0.004487     0.002232     0.000033
H     -2.195879    -0.482178     0.070339      0.000724    -0.000486     0.001705
H      0.003829    -1.492866     0.323773     -0.001335    -0.000730    -0.000256
H      0.178407    -0.752124    -1.250841      0.001232     0.001207     0.000665
H      0.972214     1.325201     0.606883      0.001588     0.000847     0.000983
9
轮次2  Outer Iteration 3, Energy=-265.6561101958, |grad|=0.008941
O     -1.439672     1.347217    -0.101236      0.000660    -0.002780    -0.002519
C     -1.317126     0.168581    -0.068985     -0.000618     0.002788     0.002577
C      0.014965    -0.528779    -0.187086     -0.000340    -0.001503    -0.002501
C      1.195927     0.300664     0.282895      0.001869    -0.001833     0.003354
O      2.293813    -0.140022     0.326549     -0.003421     0.001871    -0.001904
H     -2.197782    -0.487382     0.025200      0.000763     0.000451     0.000905
H      0.008958    -1.487821     0.334485     -0.000578    -0.000457    -0.000351
H      0.174508    -0.760064    -1.245844      0.001187     0.000759     0.000253
H      0.979493     1.339054     0.571414      0.000478     0.000703     0.000186
9
轮次2  Outer Iteration 4, Energy=-265.6563290045, |grad|=0.010002
O     -1.452493     1.347722    -0.053169     -0.001316     0.003665    -0.000477
C     -1.320173     0.168179    -0.071482      0.000158    -0.003089    -0.003637
C      0.016353    -0.522610    -0.185266      0.000358    -0.001194     0.002115
C      1.202537     0.304126     0.272791     -0.001833     0.003269    -0.000787
O      2.293823    -0.154835     0.346746      0.004058    -0.003264    -0.000209
H     -2.198812    -0.496026    -0.012180     -0.000456     0.000186     0.002689
H      0.013011    -1.476339     0.344797      0.000137     0.000412    -0.000605
H      0.168357    -0.767483    -1.242839      0.000608     0.000811    -0.000231
H      0.990481     1.348716     0.537995     -0.001714    -0.000796     0.001142
9
轮次2  Outer Iteration 5, Energy=-265.6565430508, |grad|=0.007641
O     -1.450330     1.343652    -0.004872      0.000470    -0.002846    -0.001912
C     -1.319480     0.167095    -0.063624     -0.000480     0.002043     0.001005
C      0.015934    -0.522556    -0.182410     -0.000486     0.000300     0.000954
C      1.204147     0.306614     0.264744      0.003815    -0.000673    -0.002628
O      2.290447    -0.154265     0.364918     -0.002941     0.001428     0.000352
H     -2.199231    -0.498193    -0.056446     -0.000174     0.000199     0.000995
H      0.011468    -1.474068     0.352529     -0.000694     0.000028    -0.000556
H      0.160360    -0.776065    -1.239090      0.000755     0.000462    -0.000059
H      0.999768     1.359237     0.501645     -0.000265    -0.000941     0.001851
9
轮次2  Outer Iteration 6, Energy=-265.6566567421, |grad|=0.013994
O     -1.450739     1.339437     0.049297      0.000390    -0.004647    -0.000000
C     -1.318113     0.167749    -0.064917      0.000793     0.005611    -0.004459
C      0.015545    -0.523954    -0.179649     -0.000017    -0.000219    -0.001084
C      1.201178     0.307140     0.268463      0.000218    -0.003430     0.007915
O      2.286177    -0.154386     0.379231     -0.003147     0.003113    -0.003460
H     -2.196203    -0.498613    -0.094741      0.000977    -0.000203     0.002775
H      0.006080    -1.474725     0.358275     -0.000259    -0.000942    -0.000246
H      0.160429    -0.783286    -1.234754     -0.000453    -0.000022     0.000016
H      1.008730     1.372087     0.456187      0.001498     0.000740    -0.001457
9
轮次2  Outer Iteration 7, Energy=-265.6567797652, |grad|=0.019107
O     -1.461346     1.338550     0.078093     -0.002741     0.007825    -0.001946
C     -1.319719     0.166458    -0.053130      0.002894    -0.005252     0.004565
C      0.016147    -0.521520    -0.176100      0.000552    -0.001861    -0.002897
C      1.204723     0.310292     0.259604     -0.009408     0.005115     0.002196
O      2.285366    -0.165399     0.391648      0.008491    -0.005241    -0.000918
H     -2.195190    -0.500091    -0.129557      0.000445    -0.000266    -0.000796
H      0.012569    -1.469967     0.365984     -0.000385    -0.000877    -0.000125
H      0.154418    -0.785552    -1.231098      0.000801    -0.000269     0.000035
H      1.016117     1.378678     0.431950     -0.000648     0.000826    -0.000115
9
轮次2  Outer Iteration 8, Energy=-265.6568782410, |grad|=0.013763
O     -1.455107     1.328708     0.114662      0.002424    -0.001051    -0.000581
C     -1.323275     0.162793    -0.056339     -0.003729    -0.001497    -0.001688
C      0.016415    -0.519037    -0.178719      0.000861     0.002178     0.003700
C      1.209222     0.311988     0.246963      0.007986    -0.001833    -0.005407
O      2.278762    -0.166407     0.417035     -0.005199     0.001618     0.000729
H     -2.202919    -0.497402    -0.147701     -0.001262    -0.000123     0.001172
H      0.016038    -1.462071     0.370236     -0.000568     0.001231    -0.000292
H      0.153335    -0.789005    -1.232730      0.001045     0.000883    -0.000124
H      1.020614     1.381884     0.403987     -0.001555    -0.001407     0.002491
9
轮次2  Outer Iteration 9, Energy=-265.6570196276, |grad|=0.005687
O     -1.462498     1.323800     0.150480     -0.000495    -0.003406    -0.001148
C     -1.320570     0.164985    -0.051930      0.000723     0.003753    -0.000284
C      0.015969    -0.520256    -0.177290     -0.000745    -0.000167     0.000151
C      1.207692     0.312360     0.248629      0.000289    -0.000593     0.000670
O      2.276759    -0.165360     0.432800     -0.000110     0.000872    -0.000700
H     -2.195643    -0.495108    -0.175679      0.000154     0.000236     0.000932
H      0.013486    -1.464168     0.371965     -0.000153    -0.000106    -0.000233
H      0.147716    -0.793765    -1.230979      0.000123    -0.000157    -0.000042
H      1.030174     1.388962     0.369396      0.000214    -0.000432     0.000654
9
轮次2  Inner Iteration 1, |pred_grad|=0.005231
O     -1.462498     1.323800     0.150480     -0.000294    -0.003129    -0.001150
C     -1.320570     0.164985    -0.051930      0.000385     0.003276    -0.000305
C      0.015969    -0.520256    -0.177290     -0.000744     0.000028     0.000452
C      1.207692     0.312360     0.248629      0.000743    -0.000678     0.000259
O      2.276759    -0.165360     0.432800     -0.000397     0.000909    -0.000591
H     -2.195643    -0.495108    -0.175679      0.000034     0.000209     0.000943
H      0.013486    -1.464168     0.371965     -0.000216     0.000017    -0.000233
H      0.147716    -0.793765    -1.230979      0.000246    -0.000029    -0.000042
H      1.030174     1.388962     0.369396      0.000066    -0.000527     0.000800
9
轮次2  Inner Iteration 2, |pred_grad|=0.005233
O     -1.462489     1.323897     0.150516     -0.000295    -0.003130    -0.001151
C     -1.320582     0.164883    -0.051920      0.000387     0.003278    -0.000304
C      0.015992    -0.520257    -0.177304     -0.000745     0.000027     0.000450
C      1.207669     0.312382     0.248621      0.000739    -0.000677     0.000262
O      2.276772    -0.165388     0.432819     -0.000395     0.000908    -0.000592
H     -2.195644    -0.495115    -0.175709      0.000035     0.000209     0.000943
H      0.013493    -1.464169     0.371972     -0.000216     0.000016    -0.000233
H      0.147709    -0.793764    -1.230978      0.000246    -0.000029    -0.000042
H      1.030172     1.388978     0.369372      0.000067    -0.000527     0.000799
9
轮次2  Inner Iteration 3, |pred_grad|=0.005234
O     -1.462480     1.323995     0.150552     -0.000297    -0.003131    -0.001151
C     -1.320594     0.164781    -0.051911      0.000389     0.003281    -0.000303
C      0.016015    -0.520258    -0.177318     -0.000746     0.000026     0.000448
C      1.207646     0.312403     0.248613      0.000735    -0.000677     0.000266
O      2.276784    -0.165416     0.432837     -0.000392     0.000908    -0.000593
H     -2.195645    -0.495121    -0.175738      0.000036     0.000209     0.000943
H      0.013499    -1.464169     0.371979     -0.000215     0.000016    -0.000233
H      0.147701    -0.793763    -1.230977      0.000245    -0.000030    -0.000042
H      1.030170     1.388995     0.369347      0.000068    -0.000526     0.000798
9
轮次2  Inner Iteration 4, |pred_grad|=0.005235
O     -1.462471     1.324092     0.150588     -0.000298    -0.003131    -0.001151
C     -1.320606     0.164678    -0.051901      0.000392     0.003283    -0.000303
C      0.016038    -0.520258    -0.177332     -0.000747     0.000025     0.000447
C      1.207623     0.312424     0.248604      0.000731    -0.000676     0.000269
O      2.276796    -0.165445     0.432856     -0.000390     0.000908    -0.000594
H     -2.195646    -0.495128    -0.175767      0.000036     0.000210     0.000943
H      0.013506    -1.464170     0.371987     -0.000215     0.000015    -0.000233
H      0.147693    -0.793762    -1.230975      0.000245    -0.000030    -0.000042
H      1.030168     1.389011     0.369322      0.000069    -0.000526     0.000797
9
轮次2  Inner Iteration 5, |pred_grad|=0.005236
O     -1.462461     1.324190     0.150624     -0.000299    -0.003132    -0.001152
C     -1.320619     0.164576    -0.051892      0.000394     0.003285    -0.000302
C      0.016062    -0.520259    -0.177346     -0.000748     0.000023     0.000445
C      1.207600     0.312445     0.248596      0.000727    -0.000676     0.000272
O      2.276808    -0.165473     0.432874     -0.000387     0.000907    -0.000594
H     -2.195647    -0.495134    -0.175797      0.000037     0.000210     0.000943
H      0.013513    -1.464170     0.371994     -0.000215     0.000014    -0.000233
H      0.147686    -0.793761    -1.230974      0.000245    -0.000030    -0.000042
H      1.030165     1.389027     0.369297      0.000070    -0.000525     0.000796
9
轮次3  Outer Iteration 0, Energy=-265.6570221623, |grad|=0.002468
O     -1.462452     1.324287     0.150660     -0.000811     0.000129    -0.000578
C     -1.320631     0.164474    -0.051882      0.000729    -0.000016    -0.000788
C      0.016085    -0.520260    -0.177359     -0.000434    -0.000032    -0.000035
C      1.207577     0.312466     0.248588     -0.000683    -0.000169     0.000502
O      2.276820    -0.165501     0.432893      0.000802     0.000426    -0.000546
H     -2.195649    -0.495141    -0.175826      0.000344     0.000361     0.000908
H      0.013520    -1.464171     0.372001     -0.000237    -0.000142    -0.000179
H      0.147678    -0.793760    -1.230973      0.000077    -0.000120     0.000064
H      1.030163     1.389044     0.369272      0.000213    -0.000437     0.000651
9
轮次3  Outer Iteration 1, Energy=-265.6571196583, |grad|=0.012310
O     -1.458242     1.308253     0.221013      0.001722     0.000437    -0.003785
C     -1.321837     0.158214    -0.033603     -0.001779    -0.002501     0.009588
C      0.015860    -0.521666    -0.174787      0.000319     0.000755    -0.002105
C      1.207644     0.316902     0.237290      0.002154     0.001117    -0.001768
O      2.261850    -0.168015     0.478442     -0.001802    -0.000423    -0.000440
H     -2.196563    -0.484200    -0.232951     -0.000085     0.000468    -0.003186
H      0.022263    -1.464497     0.376321     -0.000895     0.000127     0.000072
H      0.139444    -0.794645    -1.229531      0.001110    -0.000160     0.000269
H      1.042692     1.401091     0.295180     -0.000744     0.000181     0.001355
9
轮次3  Outer Iteration 2, Energy=-265.6572498848, |grad|=0.012561
O     -1.455119     1.286537     0.299652      0.003689    -0.001120     0.002234
C     -1.322157     0.158654    -0.041040     -0.003050     0.002228    -0.007617
C      0.016209    -0.520806    -0.179944      0.001561    -0.000766     0.003854
C      1.205584     0.320715     0.230862      0.003571     0.001890     0.000810