9
Iteration 0, Energy=-265.2719208368, |grad|=1.812597
O     -1.416218     1.506380    -0.357246     -0.058458     0.387674    -0.014212
C     -1.200746     0.001482    -0.221410      0.996514    -0.709214    -0.115647
C     -0.103718    -0.391888    -0.194057     -0.948904     0.608717     0.017305
C      1.210112     0.169546     0.551259     -0.174455    -0.178422     0.260874
O      2.417665    -0.143657     0.156891      0.321926    -0.046104    -0.146765
H     -2.237921    -0.476489     0.361065     -0.125724    -0.039011     0.102531
H      0.011154    -1.602647     0.309513      0.032800    -0.119333     0.061448
H      0.195634    -0.741680    -1.389773      0.019519    -0.052636    -0.124801
H      0.837120     1.430402     0.721152     -0.063218     0.148328    -0.040734
9
Iteration 1, Energy=-265.4056510442, |grad|=1.168380
O     -1.470583     1.481170    -0.352238     -0.059205     0.402967    -0.013092
C     -1.273004     0.032717    -0.217110      0.491132    -0.550719    -0.127266
C     -0.059687    -0.412716    -0.200052     -0.447132     0.424085     0.039173
C      1.237736     0.167607     0.535028     -0.093383    -0.196504     0.230152
O      2.403253    -0.129552     0.169896      0.234134    -0.019762    -0.119755
H     -2.290205    -0.430617     0.359027     -0.122106    -0.026563     0.096411
H      0.049359    -1.605629     0.294072      0.039261    -0.119860     0.057304
H      0.234605    -0.757567    -1.376676      0.017579    -0.053954    -0.121932
H      0.881609     1.406037     0.725446     -0.060278     0.140309    -0.040995
9
Iteration 2, Energy=-265.5006528107, |grad|=0.934336
O     -1.460132     1.403615    -0.342115     -0.044635     0.339835    -0.002792
C     -1.292912     0.057311    -0.208769      0.346078    -0.470940    -0.129577
C     -0.041413    -0.425909    -0.212371     -0.311590     0.372191     0.040550
C      1.230680     0.179449     0.509230      0.022205    -0.216847     0.176088
O      2.351056    -0.105095     0.187466      0.087035     0.020960    -0.074295
H     -2.274084    -0.388799     0.360499     -0.102376    -0.007989     0.086177
H      0.045047    -1.588386     0.267960      0.035275    -0.110661     0.049371
H      0.246899    -0.764160    -1.355990      0.013913    -0.052669    -0.107149
H      0.907944     1.383422     0.731484     -0.045905     0.126121    -0.038374
9
Iteration 3, Energy=-265.5691673279, |grad|=0.652483
O     -1.465065     1.328401    -0.336344     -0.022869     0.166655     0.019488
C     -1.317557     0.089085    -0.200153      0.204200    -0.288412    -0.131957
C     -0.026171    -0.438427    -0.223893     -0.200862     0.311927     0.029633
C      1.219996     0.193303     0.486065      0.036794    -0.197823     0.151478
O      2.340790    -0.092992     0.201021      0.052879     0.027941    -0.058761
H     -2.257216    -0.352035     0.360722     -0.075130     0.014918     0.070459
H      0.034859    -1.564052     0.242379      0.029728    -0.094302     0.038017
H      0.259456    -0.768005    -1.329569      0.010535    -0.049221    -0.083798
H      0.923992     1.356171     0.737165     -0.035276     0.108318    -0.034558
9
Iteration 4, Energy=-265.6108205537, |grad|=0.417749
O     -1.468852     1.303116    -0.341921     -0.006786     0.030280     0.033089
C     -1.327020     0.118445    -0.185332      0.097955    -0.128392    -0.116670
C     -0.011023    -0.461291    -0.236882     -0.110707     0.228905     0.010355
C      1.196408     0.212030     0.453924      0.057142    -0.164670     0.116996
O      2.312237    -0.080075     0.218427     -0.007075     0.039276    -0.038002
H     -2.211063    -0.343491     0.368828     -0.040792     0.025260     0.050888
H      0.018499    -1.537862     0.215152      0.022205    -0.064781     0.019606
H      0.271814    -0.778101    -1.297633      0.005179    -0.042147    -0.045592
H      0.932085     1.318678     0.742830     -0.017121     0.076268    -0.030670
9
Iteration 5, Energy=-265.6342798670, |grad|=0.258357
O     -1.472271     1.317325    -0.356589     -0.006458     0.042873     0.020512
C     -1.328935     0.138684    -0.162702      0.037571    -0.105518    -0.073472
C     -0.000092    -0.488582    -0.244827     -0.049530     0.134746    -0.006093
C      1.172941     0.235234     0.417092     -0.007434    -0.092148     0.094474
O      2.306446    -0.075102     0.234240      0.027972     0.020427    -0.033100
H     -2.168935    -0.355744     0.374456     -0.013222     0.022247     0.032383
H      0.000308    -1.519162     0.199769      0.013914    -0.029703    -0.000335
H      0.278435    -0.785206    -1.274741      0.000917    -0.032015    -0.008900
H      0.925187     1.284002     0.750696     -0.003729     0.039091    -0.025470
9
Iteration 6, Energy=-265.6468374699, |grad|=0.141589
O     -1.466533     1.311670    -0.377856      0.001736    -0.006215     0.017086
C     -1.320596     0.159695    -0.135650      0.012318    -0.028539    -0.046234
C      0.009042    -0.503845    -0.241253     -0.017417     0.076327    -0.003694
C      1.168998     0.256590     0.380166      0.027968    -0.053824     0.057565
O      2.284040    -0.086544     0.240283     -0.029161     0.021928    -0.017728
H     -2.148879    -0.377824     0.366929     -0.005330     0.012037     0.020295
H     -0.011040    -1.507888     0.216480      0.005564    -0.012640    -0.005223
H      0.275253    -0.764873    -1.276664      0.003452    -0.021997    -0.003332
H      0.922800     1.264468     0.764958      0.000869     0.012924    -0.018734
9
Iteration 7, Energy=-265.6522015461, |grad|=0.093907
O     -1.472209     1.312033    -0.405933     -0.003439     0.016394     0.000579
C     -1.316702     0.167934    -0.111867      0.015720    -0.033364    -0.014321
C      0.007047    -0.517057    -0.234502     -0.023404     0.044473    -0.002527
C      1.179985     0.272152     0.337827     -0.031130    -0.015581     0.014116
O      2.314366    -0.092890     0.254730      0.045538    -0.006144    -0.007002
H     -2.151775    -0.394630     0.346258     -0.004951     0.004346     0.010990
H     -0.011901    -1.512951     0.244516      0.000221    -0.016013     0.001238
H      0.239032    -0.739072    -1.286398      0.004981    -0.010539    -0.004965
H      0.925240     1.255931     0.792762     -0.003535     0.016428     0.001893
9
Iteration 8, Energy=-265.6517128822, |grad|=0.118445
O     -1.442464     1.324179    -0.384063      0.003102    -0.017069     0.001656
C     -1.310715     0.188212    -0.092996     -0.034732     0.030642     0.002596
C      0.019380    -0.553345    -0.213842      0.024302    -0.058450    -0.015189
C      1.161043     0.274426     0.333926     -0.033991     0.029127     0.031074
O      2.289177    -0.089479     0.239510      0.011972    -0.005954    -0.010832
H     -2.122865    -0.419383     0.290727      0.027616     0.004952    -0.005158
H     -0.008862    -1.502461     0.266936      0.000874     0.033844    -0.016283
H      0.220288    -0.705221    -1.255527     -0.005115     0.007808     0.028747
H      0.908102     1.234522     0.752721      0.005973    -0.024900    -0.016611
9
Iteration 9, Energy=-265.6538216118, |grad|=0.051076
O     -1.457705     1.315392    -0.401656     -0.001338     0.013189    -0.004584
C     -1.312238     0.173977    -0.098587      0.002541    -0.013587    -0.000960
C      0.014229    -0.530391    -0.220624     -0.000248     0.005505    -0.002518
C      1.179384     0.277011     0.327935      0.026781    -0.014510     0.007141
O      2.290473    -0.096132     0.248129     -0.031744     0.012399    -0.001605
H     -2.149866    -0.414398     0.312044      0.001305    -0.000681     0.004833
H     -0.004671    -1.507785     0.266403     -0.000853    -0.001054    -0.000907
H      0.222317    -0.714362    -1.278144      0.001827    -0.000870     0.000729
H      0.931162     1.248138     0.781894      0.001728    -0.000391    -0.002128
9
Iteration 10, Energy=-265.6541791927, |grad|=0.045049
O     -1.451353     1.311741    -0.372064      0.003316    -0.028471     0.005047
C     -1.315906     0.174464    -0.093604     -0.007330     0.024821    -0.007677
C      0.016312    -0.531988    -0.213804      0.003169    -0.002711    -0.001071
C      1.182532     0.282985     0.320109     -0.010262     0.007057     0.007649
O      2.302271    -0.104598     0.253710      0.010928    -0.004897    -0.003786
H     -2.166326    -0.418794     0.278178      0.001362     0.003128     0.002742
H      0.002433    -1.503788     0.275629     -0.001077     0.003629    -0.002599
H      0.212695    -0.713717    -1.273299      0.001251     0.001040     0.001583
H      0.930426     1.255145     0.762539     -0.001356    -0.003596    -0.001889
9
Iteration 11, Energy=-265.6545748135, |grad|=0.009815
O     -1.450194     1.322724    -0.348063     -0.001785     0.001795    -0.003409
C     -1.313802     0.172461    -0.088383      0.003579    -0.003331     0.001254
C      0.014281    -0.531451    -0.210402     -0.003048     0.001915    -0.000604
C      1.185770     0.286051     0.311769     -0.001899    -0.000388    -0.000227
O      2.301778    -0.107837     0.263604      0.003539    -0.000887    -0.000568
H     -2.173495    -0.430259     0.248842     -0.000985     0.001340     0.002330
H      0.008821    -1.506073     0.283198     -0.000060    -0.001945    -0.000501
H      0.200585    -0.721184    -1.272474      0.001384     0.000309    -0.000620
H      0.939340     1.267018     0.749302     -0.000724     0.001192     0.002346
9
Iteration 12, Energy=-265.6549078413, |grad|=0.010938
O     -1.438289     1.334135    -0.295543      0.000842     0.005407    -0.002648
C     -1.314750     0.171389    -0.087738     -0.002973    -0.005047    -0.001440
C      0.014180    -0.535169    -0.206442     -0.000011    -0.002463    -0.000419
C      1.185114     0.288507     0.304654     -0.000714    -0.001757    -0.001090
O      2.299707    -0.108927     0.277537     -0.000306     0.002447     0.000198
H     -2.176510    -0.447642     0.208479      0.002031    -0.000043     0.003409
H      0.001427    -1.505139     0.293276     -0.001477    -0.000284    -0.000538
H      0.198130    -0.727852    -1.267275      0.001241     0.002003     0.000972
H      0.944076     1.282147     0.710445      0.001367    -0.000264     0.001555
9
Iteration 13, Energy=-265.6552459431, |grad|=0.009665
O     -1.443726     1.338423    -0.252562      0.000145    -0.000611    -0.003427
C     -1.316217     0.171991    -0.079651     -0.002270     0.001477     0.003134
C      0.015325    -0.530520    -0.198718      0.001287    -0.002200    -0.002256
C      1.190814     0.290895     0.302009      0.002919    -0.001295     0.003085
O      2.299422    -0.121699     0.284276     -0.003752     0.001970    -0.001629
H     -2.184065    -0.463558     0.158986      0.001368    -0.000035     0.001322
H      0.003332    -1.497998     0.304888     -0.001381     0.000448    -0.000829
H      0.192074    -0.732725    -1.259531      0.001429     0.001383     0.000686
H      0.956126     1.296640     0.677696      0.000255    -0.001138    -0.000086
9
Iteration 14, Energy=-265.6554935099, |grad|=0.015011
O     -1.450691     1.341619    -0.207485     -0.002109    -0.006353    -0.000256
C     -1.316463     0.171193    -0.082984      0.002115     0.006135    -0.004840
C      0.017428    -0.525495    -0.196663      0.001711    -0.001672     0.003752
C      1.195583     0.297262     0.291238      0.005077     0.003733    -0.001206
O      2.295753    -0.138706     0.301152     -0.004147    -0.002276    -0.000766
H     -2.189496    -0.470990     0.123379     -0.001006     0.001522     0.003369
H      0.014407    -1.488759     0.314971      0.000246     0.000233    -0.001215
H      0.184319    -0.743578    -1.257407      0.000594     0.000788    -0.000530
H      0.962243     1.308903     0.651192     -0.002482    -0.002110     0.001692
9
Iteration 1, Energy=-265.6551541002, |grad|=0.048485
O     -1.424718     1.349193    -0.128673      0.003089     0.014534    -0.009039
C     -1.317347     0.166054    -0.055124     -0.001433    -0.014503     0.019284
C      0.011664    -0.534615    -0.180623     -0.002869     0.003822    -0.015717
C      1.190677     0.289654     0.308460     -0.010408    -0.011776     0.025898
O      2.304231    -0.119193     0.300060      0.007791     0.005638    -0.008589
H     -2.204201    -0.483836     0.028480     -0.000005    -0.002128    -0.003949
H      0.001310    -1.499885     0.328939     -0.000675     0.000869     0.000267
H      0.177424    -0.749697    -1.241652      0.001290    -0.000383    -0.000336
H      0.974044     1.333774     0.577525      0.003219     0.003926    -0.007820
9
Iteration 2, Energy=-265.6558355051, |grad|=0.012482
O     -1.436359     1.347374    -0.150384      0.001450     0.005358    -0.002792
C     -1.317720     0.168209    -0.073735     -0.001818    -0.006125     0.001527
C      0.013548    -0.530142    -0.191390     -0.002454     0.000697    -0.002160
C      1.194467     0.296727     0.287517     -0.003875    -0.002998     0.000296
O      2.300577    -0.128752     0.315231      0.004487     0.002232     0.000033
H     -2.195879    -0.482178     0.070339      0.000724    -0.000486     0.001705
H      0.003829    -1.492866     0.323773     -0.001335    -0.000730    -0.000256
H      0.178407    -0.752124    -1.250841      0.001232     0.001207     0.000665
H      0.972214     1.325201     0.606883      0.001588     0.000847     0.000983
9
Iteration 3, Energy=-265.6561101958, |grad|=0.008941
O     -1.439672     1.347217    -0.101236      0.000660    -0.002780    -0.002519
C     -1.317126     0.168581    -0.068985     -0.000618     0.002788     0.002577
C      0.014965    -0.528779    -0.187086     -0.000340    -0.001503    -0.002501
C      1.195927     0.300664     0.282895      0.001869    -0.001833     0.003354
O      2.293813    -0.140022     0.326549     -0.003421     0.001871    -0.001904
H     -2.197782    -0.487382     0.025200      0.000763     0.000451     0.000905
H      0.008958    -1.487821     0.334485     -0.000578    -0.000457    -0.000351
H      0.174508    -0.760064    -1.245844      0.001187     0.000759     0.000253
H      0.979493     1.339054     0.571414      0.000478     0.000703     0.000186
9
Iteration 4, Energy=-265.6563290045, |grad|=0.010002
O     -1.452493     1.347722    -0.053169     -0.001316     0.003665    -0.000477
C     -1.320173     0.168179    -0.071482      0.000158    -0.003089    -0.003637
C      0.016353    -0.522610    -0.185266      0.000358    -0.001194     0.002115
C      1.202537     0.304126     0.272791     -0.001833     0.003269    -0.000787
O      2.293823    -0.154835     0.346746      0.004058    -0.003264    -0.000209
H     -2.198812    -0.496026    -0.012180     -0.000456     0.000186     0.002689
H      0.013011    -1.476339     0.344797      0.000137     0.000412    -0.000605
H      0.168357    -0.767483    -1.242839      0.000608     0.000811    -0.000231
H      0.990481     1.348716     0.537995     -0.001714    -0.000796     0.001142
9
Iteration 5, Energy=-265.6565430508, |grad|=0.007641
O     -1.450330     1.343652    -0.004872      0.000470    -0.002846    -0.001912
C     -1.319480     0.167095    -0.063624     -0.000480     0.002043     0.001005
C      0.015934    -0.522556    -0.182410     -0.000486     0.000300     0.000954
C      1.204147     0.306614     0.264744      0.003815    -0.000673    -0.002628
O      2.290447    -0.154265     0.364918     -0.002941     0.001428     0.000352
H     -2.199231    -0.498193    -0.056446     -0.000174     0.000199     0.000995
H      0.011468    -1.474068     0.352529     -0.000694     0.000028    -0.000556
H      0.160360    -0.776065    -1.239090      0.000755     0.000462    -0.000059
H      0.999768     1.359237     0.501645     -0.000265    -0.000941     0.001851
9
Iteration 6, Energy=-265.6566567422, |grad|=0.013994
O     -1.450739     1.339437     0.049297      0.000390    -0.004647    -0.000000
C     -1.318113     0.167749    -0.064917      0.000793     0.005611    -0.004459
C      0.015545    -0.523954    -0.179649     -0.000017    -0.000219    -0.001084
C      1.201178     0.307140     0.268463      0.000218    -0.003430     0.007915
O      2.286177    -0.154386     0.379231     -0.003147     0.003113    -0.003460
H     -2.196203    -0.498613    -0.094741      0.000977    -0.000203     0.002775
H      0.006080    -1.474725     0.358275     -0.000259    -0.000942    -0.000246
H      0.160429    -0.783286    -1.234754     -0.000453    -0.000022     0.000016
H      1.008730     1.372087     0.456187      0.001498     0.000740    -0.001457
9
Iteration 7, Energy=-265.6567797652, |grad|=0.019107
O     -1.461346     1.338550     0.078093     -0.002741     0.007825    -0.001946
C     -1.319719     0.166458    -0.053130      0.002894    -0.005252     0.004565
C      0.016147    -0.521520    -0.176100      0.000552    -0.001861    -0.002897
C      1.204723     0.310292     0.259604     -0.009408     0.005115     0.002196
O      2.285366    -0.165399     0.391648      0.008491    -0.005241    -0.000918
H     -2.195190    -0.500091    -0.129557      0.000445    -0.000266    -0.000796
H      0.012569    -1.469967     0.365984     -0.000385    -0.000877    -0.000125
H      0.154418    -0.785552    -1.231098      0.000801    -0.000269     0.000035
H      1.016117     1.378678     0.431950     -0.000648     0.000826    -0.000115
9
Iteration 8, Energy=-265.6568782410, |grad|=0.013763
O     -1.455107     1.328708     0.114662      0.002424    -0.001051    -0.000581
C     -1.323275     0.162793    -0.056339     -0.003729    -0.001497    -0.001688
C      0.016415    -0.519037    -0.178719      0.000861     0.002178     0.003700
C      1.209222     0.311988     0.246963      0.007986    -0.001833    -0.005407
O      2.278762    -0.166407     0.417035     -0.005199     0.001618     0.000729
H     -2.202919    -0.497402    -0.147701     -0.001262    -0.000123     0.001172
H      0.016038    -1.462071     0.370236     -0.000568     0.001231    -0.000292
H      0.153335    -0.789005    -1.232730      0.001045     0.000883    -0.000124
H      1.020614     1.381884     0.403987     -0.001555    -0.001407     0.002491
9
Iteration 9, Energy=-265.6570196276, |grad|=0.005687
O     -1.462498     1.323800     0.150480     -0.000495    -0.003406    -0.001148
C     -1.320570     0.164985    -0.051930      0.000723     0.003753    -0.000284
C      0.015969    -0.520256    -0.177290     -0.000745    -0.000167     0.000151
C      1.207692     0.312360     0.248629      0.000289    -0.000593     0.000670
O      2.276759    -0.165360     0.432800     -0.000110     0.000872    -0.000700
H     -2.195643    -0.495108    -0.175679      0.000154     0.000236     0.000932
H      0.013486    -1.464168     0.371965     -0.000153    -0.000106    -0.000233
H      0.147716    -0.793765    -1.230979      0.000123    -0.000157    -0.000042
H      1.030174     1.388962     0.369396      0.000214    -0.000432     0.000654
9
Iteration 1, Energy=-265.6570756901, |grad|=0.019170
O     -1.458829     1.310482     0.219880      0.000859     0.009479    -0.002575
C     -1.322231     0.157287    -0.031683     -0.001318    -0.011093     0.010077
C      0.015862    -0.521828    -0.174204      0.000565     0.000698    -0.003023
C      1.207811     0.316839     0.237320      0.000032     0.002020    -0.002293
O      2.262977    -0.168245     0.477366      0.000605    -0.001491     0.000125
H     -2.196382    -0.484843    -0.234747     -0.000119     0.000117    -0.004075
H      0.022697    -1.464844     0.376607     -0.001046     0.000163     0.000117
H      0.138646    -0.794380    -1.229114      0.001245    -0.000220     0.000306
H      1.042534     1.400981     0.295967     -0.000825     0.000328     0.001341
9
Iteration 2, Energy=-265.6571439187, |grad|=0.010739
O     -1.458782     1.312944     0.208898      0.000739     0.007011     0.001647
C     -1.321580     0.161083    -0.046440     -0.000812    -0.006486    -0.003450
C      0.016296    -0.520719    -0.177897      0.000894    -0.000035     0.000691
C      1.206839     0.315697     0.241364     -0.000605     0.001001    -0.000049
O      2.264458    -0.169049     0.470962      0.000944    -0.001201    -0.000590
H     -2.197071    -0.489947    -0.211771     -0.000348    -0.000961     0.000746
H      0.017729    -1.463013     0.374260     -0.000277     0.000008     0.000141
H      0.145579    -0.794576    -1.231670      0.000199     0.000250     0.000227
H      1.039615     1.399029     0.309688     -0.000734     0.000413     0.000637
9
Iteration 3, Energy=-265.6571750682, |grad|=0.020950
O     -1.467940     1.303032     0.229983      0.000161    -0.014521    -0.004415
C     -1.321515     0.161800    -0.040031     -0.000159     0.012980     0.004291
C      0.016026    -0.519215    -0.177979     -0.000992     0.000268    -0.000925
C      1.208748     0.315044     0.239534      0.001969    -0.001141     0.001765
O      2.261021    -0.168999     0.489206     -0.001763     0.001438    -0.001502
H     -2.194534    -0.485504    -0.226981      0.000226     0.001721     0.000294
H      0.018815    -1.461844     0.373528     -0.000093     0.000164     0.000094
H      0.141831    -0.793414    -1.232318      0.000427    -0.000339     0.000027
H      1.050632     1.400550     0.282452      0.000225    -0.000569     0.000371
9
Iteration 4, Energy=-265.6571973971, |grad|=0.002480
O     -1.465118     1.308294     0.225160     -0.000773     0.001411    -0.000187
C     -1.321194     0.161666    -0.042087      0.000754    -0.000827    -0.000243
C      0.016152    -0.520079    -0.178626     -0.000503    -0.000380    -0.000307
C      1.207985     0.315097     0.239364     -0.000144    -0.000177     0.000270
O      2.262013    -0.168531     0.485665      0.000408     0.000293    -0.000654
H     -2.194429    -0.488003    -0.222014      0.000025     0.000037     0.000341
H      0.017931    -1.462602     0.373104     -0.000197     0.000058     0.000059
H      0.142916    -0.794383    -1.232812      0.000450    -0.000216     0.000041
H      1.046829     1.399991     0.289640     -0.000020    -0.000201     0.000680
9
Iteration 5, Energy=-265.6572224048, |grad|=0.002217
O     -1.461458     1.304546     0.236030      0.000983    -0.000713    -0.000582
C     -1.321308     0.160267    -0.040689     -0.000812     0.000307    -0.000067
C      0.016363    -0.519889    -0.179208      0.000346     0.000556     0.000024
C      1.207399     0.316314     0.237980      0.000042     0.000346     0.000085
O      2.257926    -0.169091     0.495540      0.000134    -0.000333    -0.000699
H     -2.195137    -0.486924    -0.227493     -0.000055    -0.000257     0.000246
H      0.018790    -1.462509     0.372404     -0.000510     0.000083     0.000138
H      0.141846    -0.793519    -1.233649      0.000256    -0.000112     0.000156
H      1.048664     1.402254     0.276478     -0.000384     0.000124     0.000698
9
Iteration 6, Energy=-265.6572440027, |grad|=0.001359
O     -1.464098     1.302810     0.244378     -0.000004     0.000052    -0.000393
C     -1.321289     0.160365    -0.039249     -0.000031     0.000057    -0.000110
C      0.016437    -0.519764    -0.179806      0.000027     0.000045    -0.000104
C      1.207847     0.316175     0.236760      0.000318     0.000134    -0.000070
O      2.255866    -0.169281     0.503866     -0.000041    -0.000026    -0.000653
H     -2.194408    -0.486073    -0.231387     -0.000027    -0.000035     0.000277
H      0.019706    -1.462563     0.371501     -0.000343     0.000054     0.000135
H      0.141082    -0.792940    -1.234518      0.000372    -0.000203     0.000134
H      1.051940     1.402722     0.265848     -0.000271    -0.000077     0.000784
9
Iteration 7, Energy=-265.6572637766, |grad|=0.001616
O     -1.464108     1.300833     0.252451     -0.000083     0.000298    -0.000320
C     -1.321160     0.160022    -0.037801      0.000141    -0.000069    -0.000128
C      0.016406    -0.519927    -0.180337     -0.000145     0.000075    -0.000410
C      1.207516     0.316117     0.236544     -0.000487    -0.000026     0.000530
O      2.253796    -0.168695     0.512160      0.000685    -0.000000    -0.000715
H     -2.194090    -0.485128    -0.235035      0.000006    -0.000060     0.000241
H      0.020311    -1.463131     0.370230     -0.000266     0.000108     0.000161
H      0.140136    -0.791939    -1.235513      0.000294    -0.000276     0.000079
H      1.054278     1.403299     0.254694     -0.000145    -0.000049     0.000561
9
Iteration 8, Energy=-265.6572836987, |grad|=0.001360
O     -1.463896     1.298719     0.260170     -0.000022     0.000044    -0.000296
C     -1.320984     0.159644    -0.036529      0.000143     0.000177    -0.000252
C      0.016500    -0.519931    -0.181131     -0.000202     0.000113    -0.000132
C      1.207504     0.316300     0.235115     -0.000059    -0.000275    -0.000012
O      2.250852    -0.168445     0.521245      0.000265     0.000229    -0.000608
H     -2.193802    -0.484412    -0.237823      0.000018    -0.000084     0.000270
H      0.021108    -1.463453     0.368859     -0.000287     0.000103     0.000167
H      0.139110    -0.790937    -1.236731      0.000302    -0.000257     0.000082
H      1.056692     1.403964     0.244219     -0.000158    -0.000050     0.000781
9
Iteration 9, Energy=-265.6573030575, |grad|=0.001903
O     -1.464858     1.296411     0.267611     -0.000076     0.000082    -0.000261
C     -1.321281     0.158995    -0.035140      0.000008     0.000081    -0.000270
C      0.016745    -0.519430    -0.181488      0.000360     0.000023    -0.000069
C      1.207646     0.316837     0.234381      0.000827    -0.000023     0.000294
O      2.247415    -0.169652     0.529402     -0.000776     0.000110    -0.000976
H     -2.193761    -0.484175    -0.240789     -0.000041    -0.000049     0.000258
H      0.022051    -1.463454     0.367659     -0.000367     0.000059     0.000182
H      0.138845    -0.789129    -1.237465      0.000335    -0.000237     0.000147
H      1.060283     1.405047     0.233223     -0.000270    -0.000045     0.000695
9
Iteration 1, Energy=-265.6574120879, |grad|=0.005589
O     -1.466367     1.283307     0.311170     -0.000180     0.000338    -0.000631
C     -1.322071     0.155398    -0.024902      0.000061    -0.000631     0.001036
C      0.016425    -0.518786    -0.184507     -0.000512     0.000475    -0.001581
C      1.206808     0.318049     0.232312     -0.002549     0.001645     0.002125
O      2.231112    -0.167267     0.582010      0.003110    -0.001213    -0.000721
H     -2.193470    -0.479678    -0.258327     -0.000061     0.000160    -0.000348
H      0.027661    -1.467008     0.357181     -0.000164     0.000030     0.000045
H      0.133215    -0.779369    -1.243423      0.000166    -0.000662     0.000319
H      1.079772     1.406805     0.165880      0.000127    -0.000143    -0.000246
9
Iteration 2, Energy=-265.6575495169, |grad|=0.013359
O     -1.461264     1.261731     0.378714     -0.000177    -0.000077     0.000956
C     -1.320090     0.152180    -0.014586      0.000330     0.000249    -0.003341
C      0.016732    -0.519216    -0.195282     -0.003744     0.000680     0.002294
C      1.207117     0.319284     0.218165     -0.003020     0.002714    -0.007315
O      2.195945    -0.153717     0.674507      0.006783    -0.002311     0.004233
H     -2.192633    -0.471423    -0.273116     -0.000165    -0.000267     0.000793
H      0.036666    -1.471721     0.338394      0.000307    -0.000298    -0.000403
H      0.122877    -0.768430    -1.258215      0.000284    -0.000533     0.000529
H      1.107734     1.402760     0.068813     -0.000597    -0.000158     0.002254
9
Iteration 3, Energy=-265.6576901027, |grad|=0.013247
O     -1.453690     1.239754     0.438717     -0.000235    -0.000426    -0.000019
C     -1.316822     0.146148     0.002384      0.001252     0.001066    -0.000059
C      0.018433    -0.520765    -0.203684     -0.000955    -0.000433     0.001179
C      1.200800     0.321799     0.216948      0.006383    -0.001477     0.004519
O      2.149793    -0.134698     0.754677     -0.008033     0.003252    -0.005402
H     -2.190305    -0.462207    -0.287047      0.000318    -0.000195    -0.000164
H      0.045419    -1.479223     0.318739      0.000136    -0.000285    -0.000323
H      0.117237    -0.749764    -1.272239      0.000454    -0.000639    -0.000175
H      1.142220     1.390407    -0.031103      0.000680    -0.000863     0.000444
9
Iteration 4, Energy=-265.6577010520, |grad|=0.018315
O     -1.447671     1.212844     0.502208     -0.000018     0.001361    -0.001505
C     -1.316189     0.135177     0.025976     -0.000332    -0.004659     0.005238
C      0.020077    -0.518936    -0.217765     -0.001529     0.003153    -0.000481
C      1.200120     0.322801     0.208328     -0.006773     0.003910    -0.006896
O      2.094983    -0.102648     0.863339      0.009040    -0.004689     0.006988
H     -2.191895    -0.453780    -0.295264     -0.000324     0.001130    -0.002256
H      0.058040    -1.484982     0.289475     -0.000149     0.000273    -0.000083
H      0.102528    -0.722763    -1.292676      0.000773    -0.000383    -0.000445
H      1.193090     1.363738    -0.146227     -0.000688    -0.000095    -0.000561
9
Iteration 5, Energy=-265.6576843571, |grad|=0.016168
O     -1.443151     1.223249     0.477909      0.000338    -0.001197     0.002797
C     -1.314064     0.143724     0.005450      0.000268     0.003013    -0.008395
C      0.020918    -0.520888    -0.219131      0.000620    -0.000556     0.000288
C      1.196430     0.322137     0.216650     -0.008369     0.002203     0.001025
O      2.114522    -0.113963     0.829657      0.007990    -0.002944     0.003043
H     -2.192555    -0.461682    -0.274668     -0.000251    -0.001092     0.002732
H      0.049005    -1.482524     0.297197      0.000534     0.000263     0.000483