12
轮次1  Outer Iteration 0, Energy=-230.2133220033, |grad|=2.231212
C      0.760242    -0.919880     0.110593      0.171624     0.747742    -0.040957
C      1.447764     0.005397    -0.142460      0.294925    -0.504854     0.041949
C      0.405207     1.397475     0.017681     -0.519451     0.052217     0.076236
C     -0.706575     0.907767     0.170143      0.340386    -0.423163     0.086222
C     -1.276504    -0.242150    -0.122689      0.447674     0.036104     0.006008
C     -0.700492    -1.319784     0.032485     -0.579047    -1.042663     0.142156
H      1.377359    -2.106887     0.077609      0.048252    -0.132308    -0.019481
H      2.320852     0.155641    -0.061750     -0.472594    -0.058420    -0.014650
H      1.003808     2.362847    -0.161013      0.083189     0.051316    -0.031908
H     -1.396750     2.049507    -0.214107     -0.025908     0.138619    -0.075923
H     -2.437288    -0.396018    -0.165209     -0.074649    -0.053628     0.009194
H     -0.856273    -2.051038     0.164068      0.285598     1.189038    -0.178845
12
轮次1  Outer Iteration 1, Energy=-230.3984659988, |grad|=1.349056
C      0.758325    -0.946514     0.116133      0.048607     0.557074     0.004532
C      1.463667     0.031122    -0.145733      0.276660    -0.362790    -0.013681
C      0.427702     1.419068     0.010785     -0.408139     0.120059     0.062125
C     -0.726090     0.941260     0.172315      0.252835    -0.400459     0.110641
C     -1.306278    -0.229412    -0.128266      0.346048     0.079552    -0.020849
C     -0.701906    -1.333652     0.029726     -0.368548    -0.446129     0.034805
H      1.376704    -2.116343     0.081469      0.048854    -0.135916    -0.019558
H      2.383194     0.192713    -0.062509     -0.307322    -0.027854    -0.003591
H      1.023088     2.374828    -0.170181      0.079389     0.042078    -0.030925
H     -1.411968     2.070368    -0.201327     -0.030831     0.140832    -0.075388
H     -2.459259    -0.377540    -0.175354     -0.072808    -0.049838     0.007927
H     -0.885828    -2.183020     0.178295      0.135256     0.483390    -0.056038
12
轮次1  Outer Iteration 2, Energy=-230.5017719388, |grad|=1.021445
C      0.765593    -0.991638     0.126754     -0.016432     0.399579     0.037233
C      1.466128     0.048097    -0.143216      0.219992    -0.274757    -0.051051
C      0.454050     1.418060    -0.002324     -0.290237     0.182202     0.044491
C     -0.759180     0.985698     0.176112      0.173089    -0.342346     0.138240
C     -1.348054    -0.218226    -0.132886      0.213323     0.100555    -0.051852
C     -0.691111    -1.344690     0.026996     -0.267394    -0.376599     0.019449
H      1.386489    -2.115504     0.090934      0.050714    -0.130633    -0.020464
H      2.442839     0.222605    -0.060300     -0.154810    -0.001764     0.006952
H      1.037722     2.355497    -0.190355      0.066591     0.022441    -0.028357
H     -1.437931     2.076437    -0.172611     -0.038724     0.137879    -0.073258
H     -2.481282    -0.357285    -0.187907     -0.060816    -0.040672     0.005914
H     -0.893914    -2.236173     0.174156      0.104704     0.324115    -0.027298
12
轮次1  Outer Iteration 3, Energy=-230.5748261956, |grad|=0.775105
C      0.772653    -1.017304     0.132960     -0.030981     0.315817     0.049901
C      1.450765     0.064309    -0.137485      0.184498    -0.239698    -0.062461
C      0.473483     1.395990    -0.014843     -0.236600     0.196505     0.033280
C     -0.775504     1.018403     0.173611      0.142336    -0.287475     0.147387
C     -1.363475    -0.205309    -0.134123      0.147700     0.080194    -0.064390
C     -0.672730    -1.330361     0.022600     -0.190324    -0.194197    -0.007796
H      1.388191    -2.084955     0.097848      0.045882    -0.112971    -0.021173
H      2.455824     0.242698    -0.056936     -0.096865     0.006896     0.011257
H      1.038572     2.322998    -0.206816      0.052047     0.004726    -0.025059
H     -1.439988     2.057426    -0.145648     -0.039080     0.124009    -0.068516
H     -2.475482    -0.334476    -0.195098     -0.041328    -0.031585     0.005234
H     -0.910959    -2.286542     0.169284      0.062715     0.137779     0.002336
12
轮次1  Outer Iteration 4, Energy=-230.6282611135, |grad|=0.596381
C      0.780323    -1.047587     0.137625     -0.033796     0.216220     0.061548
C      1.432970     0.084313    -0.129611      0.153132    -0.187663    -0.071527
C      0.495195     1.366619    -0.028239     -0.178075     0.191655     0.020930
C     -0.792071     1.046758     0.165480      0.101497    -0.218875     0.149947
C     -1.378892    -0.194750    -0.131742      0.085066     0.063293    -0.074179
C     -0.653613    -1.322743     0.020390     -0.138858    -0.132823    -0.014406
H      1.390956    -2.056560     0.104279      0.034970    -0.085363    -0.021004
H      2.464128     0.265591    -0.051525     -0.051361     0.012997     0.014585
H      1.041040     2.292119    -0.221460      0.040213    -0.006136    -0.022009
H     -1.437911     2.030646    -0.121156     -0.032430     0.098696    -0.059645
H     -2.475656    -0.314099    -0.196820     -0.025417    -0.022496     0.004573
H     -0.925120    -2.307429     0.158131      0.045058     0.070496     0.011188
12
轮次1  Outer Iteration 5, Energy=-230.6672500680, |grad|=0.430052
C      0.787101    -1.067619     0.137102     -0.016807     0.144490     0.063239
C      1.405647     0.102969    -0.118839      0.100926    -0.145390    -0.070717
C      0.513973     1.326747    -0.040481     -0.129115     0.151724     0.011148
C     -0.802321     1.067718     0.150051      0.068512    -0.143615     0.140814
C     -1.384320    -0.184495    -0.125401      0.049314     0.038919    -0.076207
C     -0.630551    -1.308019     0.019437     -0.096697    -0.070149    -0.018445
H      1.395776    -2.022664     0.106634      0.018827    -0.050506    -0.020190
H      2.455782     0.280563    -0.043310     -0.023920     0.014725     0.017347
H      1.038003     2.257753    -0.230528      0.029575    -0.011682    -0.019133
H     -1.428702     1.999931    -0.103289     -0.017151     0.061176    -0.047265
H     -2.470288    -0.296485    -0.191966     -0.012737    -0.014311     0.004085
H     -0.938750    -2.313522     0.145944      0.029273     0.024620     0.015324
12
轮次1  Outer Iteration 6, Energy=-230.6927819667, |grad|=0.267018
C      0.795454    -1.090277     0.130107     -0.001058     0.074275     0.060775
C      1.383601     0.122498    -0.104125      0.052007    -0.077136    -0.065655
C      0.533253     1.289235    -0.051744     -0.071301     0.085624     0.002866
C     -0.810868     1.085174     0.121865      0.035123    -0.068976     0.122428
C     -1.385632    -0.174960    -0.112540      0.025604     0.016051    -0.070854
C     -0.606476    -1.296446     0.020697     -0.063046    -0.029881    -0.018022
H      1.408818    -2.005483     0.104776      0.004962    -0.022122    -0.018112
H      2.444196     0.287871    -0.032288     -0.012372     0.012241     0.018508
H      1.028418     2.235654    -0.230296      0.019569    -0.010274    -0.016103
H     -1.427610     1.978872    -0.097770     -0.001805     0.023792    -0.033940
H     -2.465753    -0.282236    -0.175787     -0.005377    -0.007185     0.003350
H     -0.956049    -2.307024     0.132458      0.017694     0.003592     0.014759
12
轮次1  Outer Iteration 7, Energy=-230.7073795650, |grad|=0.163141
C      0.805035    -1.110612     0.112224      0.002397     0.035062     0.049208
C      1.375030     0.128794    -0.083454      0.016667    -0.036278    -0.053245
C      0.544935     1.266320    -0.060849     -0.029980     0.033597    -0.000897
C     -0.819963     1.098984     0.075721      0.012862    -0.029084     0.095620
C     -1.383702    -0.165927    -0.092329      0.013598     0.008595    -0.056135
C     -0.582611    -1.285954     0.024043     -0.028342    -0.009261    -0.014157
H      1.428702    -2.004084     0.096389      0.000803    -0.009050    -0.014925
H      2.443781     0.270997    -0.017601     -0.005200     0.006210     0.017139
H      1.007843     2.232472    -0.215961      0.009067    -0.005335    -0.012348
H     -1.444908     1.975834    -0.108820      0.000039     0.008241    -0.024420
H     -2.461150    -0.274977    -0.144869     -0.002059    -0.001951     0.002419
H     -0.971642    -2.288970     0.120860      0.010146    -0.000745     0.011739
12
轮次1  Outer Iteration 8, Energy=-230.7157329429, |grad|=0.104280
C      0.808254    -1.120970     0.087258     -0.000761     0.013759     0.034035
C      1.378599     0.134870    -0.060990      0.014621    -0.013845    -0.037766
C      0.553392     1.264793    -0.068237     -0.013048     0.020556    -0.000725
C     -0.820570     1.102890     0.019345      0.006266    -0.013169     0.064601
C     -1.385283    -0.167088    -0.070126      0.005813     0.001198    -0.037325
C     -0.576547    -1.286785     0.028015     -0.017910    -0.008227    -0.009801
H      1.439750    -2.004392     0.086954      0.000237    -0.004643    -0.010657
H      2.450038     0.261813    -0.004972     -0.003764     0.003194     0.012911
H      0.999455     2.243466    -0.191542      0.004300    -0.002006    -0.008641
H     -1.451825     1.975438    -0.127101      0.000649     0.003614    -0.016323
H     -2.462046    -0.280990    -0.106285     -0.001189    -0.001756     0.001485
H     -0.991867    -2.280166     0.113035      0.004785     0.001325     0.008206
12
轮次1  Outer Iteration 9, Energy=-230.7204830673, |grad|=0.053536
C      0.815574    -1.129911     0.067382     -0.000954     0.008608     0.018133
C      1.373156     0.132386    -0.038945     -0.002865    -0.008411    -0.020115
C      0.550597     1.251166    -0.075757     -0.007039    -0.002757     0.000099
C     -0.828627     1.109218    -0.034330      0.000388    -0.004294     0.033992
C     -1.384727    -0.160215    -0.051924      0.002621     0.006336    -0.020136
C     -0.562766    -1.278645     0.032307      0.004645    -0.000286    -0.005180
H      1.454695    -2.005674     0.087723      0.001869    -0.002346    -0.006168
H      2.448457     0.253444    -0.004013      0.000265    -0.000093     0.007524
H      0.994802     2.233659    -0.165185      0.001106    -0.001745    -0.004651
H     -1.465090     1.981936    -0.138950     -0.001906     0.002618    -0.008769
H     -2.460814    -0.276791    -0.073283     -0.000555     0.001161     0.000802
H     -0.993906    -2.267697     0.100328      0.002425     0.001208     0.004469
12
轮次1  Outer Iteration 10, Energy=-230.7217528930, |grad|=0.047216
C      0.807790    -1.123318     0.043450     -0.000259     0.013704     0.001347
C      1.378609     0.137688    -0.019375      0.013488    -0.014311    -0.002228
C      0.558111     1.270201    -0.084922     -0.008242     0.024971    -0.000898
C     -0.817010     1.099696    -0.086930      0.008040    -0.014593     0.005116
C     -1.387534    -0.170585    -0.032996      0.003199    -0.002646    -0.001748
C     -0.578705    -1.289783     0.035740     -0.019590    -0.010785    -0.000925
H      1.440091    -2.004102     0.089429     -0.000287    -0.004275    -0.001000
H      2.451272     0.262226    -0.002333     -0.003455     0.003660     0.001530
H      1.007351     2.254327    -0.138826      0.004887     0.000331    -0.000881
H     -1.454595     1.976669    -0.150009     -0.000053     0.005289    -0.001583
H     -2.464204    -0.288116    -0.039819     -0.000798    -0.003507     0.000139
H     -0.999827    -2.282024     0.091942      0.003070     0.002162     0.001130
12
轮次1  Outer Iteration 11, Energy=-230.7211465903, |grad|=0.084718
C      0.815511    -1.138683     0.047861      0.005179    -0.030135     0.000260
C      1.374789     0.145581    -0.026895     -0.018237     0.039109    -0.002481
C      0.568567     1.250482    -0.081486      0.031352    -0.027256     0.003687
C     -0.819328     1.105964    -0.099185     -0.010999     0.032083    -0.005321
C     -1.381511    -0.164072    -0.041613     -0.007510    -0.015116    -0.001324
C     -0.561084    -1.282340     0.040302      0.007346     0.008849     0.003587
H      1.453616    -1.994377     0.131245     -0.009223     0.013585     0.002449
H      2.453636     0.250775    -0.048465      0.002340    -0.001302    -0.003540
H      0.975431     2.252544    -0.107535     -0.007378     0.002024     0.002358
H     -1.455218     1.960294    -0.143492      0.011681    -0.020922     0.001490
H     -2.454869    -0.281308    -0.041034      0.003442     0.000398     0.001646
H     -1.028190    -2.261982     0.075652     -0.007993    -0.001318    -0.002812
12
轮次1  Outer Iteration 12, Energy=-230.7222070874, |grad|=0.017183
C      0.819334    -1.135753     0.044252     -0.000023     0.000241    -0.001079
C      1.378005     0.131970    -0.015378      0.006681    -0.006377     0.001864
C      0.550743     1.250542    -0.086927     -0.008696    -0.001537    -0.000773
C     -0.829222     1.109038    -0.094831     -0.000961    -0.002693    -0.000538
C     -1.384599    -0.158910    -0.031862      0.002407     0.005927     0.000410
C     -0.561795    -1.277259     0.036095      0.003370     0.001229     0.000086
H      1.461116    -2.008211     0.102028      0.003342    -0.001977     0.000671
H      2.452721     0.247017    -0.012440     -0.001496    -0.002158    -0.000449
H      0.986846     2.239798    -0.132880     -0.001174    -0.000212     0.000301
H     -1.470827     1.983362    -0.146707     -0.003920     0.003705     0.000024
H     -2.461277    -0.274576    -0.038052     -0.001046     0.001745    -0.000201
H     -0.999694    -2.264140     0.082056      0.001514     0.002108    -0.000317
12
轮次1  Outer Iteration 13, Energy=-230.7222439768, |grad|=0.019578
C      0.812898    -1.131349     0.045620     -0.001467    -0.001197     0.001593
C      1.371644     0.139766    -0.009437     -0.010309     0.007747    -0.000249
C      0.558655     1.254663    -0.082395      0.007671    -0.007158     0.001953
C     -0.823027     1.105285    -0.096346      0.000479     0.004411    -0.001920
C     -1.385154    -0.163326    -0.027707     -0.002568    -0.002890     0.000933
C     -0.564287    -1.282699     0.041198      0.005342     0.000520     0.000143
H      1.452187    -2.002010     0.075329     -0.001608     0.001599    -0.002600
H      2.448953     0.255514     0.002573      0.001606     0.000312     0.000896
H      0.994954     2.243051    -0.141437     -0.000364    -0.000228    -0.001293
H     -1.459889     1.975785    -0.155040      0.001766    -0.002284     0.000435
H     -2.460346    -0.281022    -0.036240      0.000780    -0.000190    -0.000356
H     -1.005240    -2.270782     0.089234     -0.001328    -0.000642     0.000465
12
轮次1  Outer Iteration 14, Energy=-230.7223450457, |grad|=0.002614
C      0.814612    -1.132090     0.044843      0.000493    -0.000862     0.000384
C      1.376003     0.137087    -0.014453      0.000608     0.000688     0.000328
C      0.556477     1.255878    -0.085419      0.000561     0.000086     0.000192
C     -0.824328     1.105613    -0.094714     -0.000936     0.000520    -0.000668
C     -1.385431    -0.163013    -0.030913     -0.000015    -0.000399     0.000405
C     -0.566244    -1.281858     0.037776     -0.000922    -0.000131    -0.000007
H      1.453414    -2.004002     0.092509     -0.000165     0.000359    -0.000669
H      2.451899     0.253426    -0.007031     -0.000025    -0.000063     0.000172
H      0.993328     2.244867    -0.135927      0.000028     0.000175    -0.000298
H     -1.462853     1.976994    -0.149188      0.000419    -0.000677     0.000204
H     -2.461277    -0.279912    -0.037500      0.000052    -0.000063    -0.000113
H     -1.004249    -2.270113     0.085370     -0.000100     0.000368     0.000071
12
轮次1  Inner Iteration 1, |pred_grad|=0.002227
C      0.814612    -1.132090     0.044843      0.000205    -0.000784     0.000311
C      1.376003     0.137087    -0.014453      0.000601     0.000661     0.000300
C      0.556477     1.255878    -0.085419      0.000484     0.000063     0.000193
C     -0.824328     1.105613    -0.094714     -0.000063     0.000480    -0.000605
C     -1.385431    -0.163013    -0.030913     -0.000020    -0.000399     0.000313
C     -0.566244    -1.281858     0.037776     -0.000818    -0.000209     0.000095
H      1.453414    -2.004002     0.092509     -0.000159     0.000316    -0.000636
H      2.451899     0.253426    -0.007031     -0.000321    -0.000071     0.000164
H      0.993328     2.244867    -0.135927     -0.000015     0.000166    -0.000287
H     -1.462853     1.976994    -0.149188      0.000417    -0.000506     0.000210
H     -2.461277    -0.279912    -0.037500      0.000044    -0.000058    -0.000113
H     -1.004249    -2.270113     0.085370     -0.000064     0.000433     0.000066
12
轮次1  Inner Iteration 2, |pred_grad|=0.002213
C      0.814609    -1.132078     0.044838      0.000205    -0.000774     0.000311
C      1.375993     0.137077    -0.014458      0.000608     0.000647     0.000300
C      0.556470     1.255877    -0.085422      0.000473     0.000069     0.000192
C     -0.824327     1.105605    -0.094704     -0.000061     0.000471    -0.000602
C     -1.385431    -0.163006    -0.030918     -0.000017    -0.000393     0.000311
C     -0.566231    -1.281855     0.037775     -0.000819    -0.000211     0.000094
H      1.453416    -2.004007     0.092519     -0.000156     0.000312    -0.000635
H      2.451904     0.253427    -0.007033     -0.000322    -0.000071     0.000165
H      0.993328     2.244864    -0.135923     -0.000014     0.000166    -0.000287
H     -1.462860     1.977002    -0.149191      0.000414    -0.000500     0.000209
H     -2.461278    -0.279911    -0.037498      0.000043    -0.000058    -0.000112
H     -1.004248    -2.270120     0.085369     -0.000061     0.000434     0.000066
12
轮次1  Inner Iteration 3, |pred_grad|=0.002199
C      0.814605    -1.132065     0.044833      0.000205    -0.000765     0.000310
C      1.375984     0.137066    -0.014463      0.000615     0.000633     0.000300
C      0.556462     1.255876    -0.085425      0.000462     0.000074     0.000191
C     -0.824326     1.105598    -0.094694     -0.000059     0.000461    -0.000599
C     -1.385431    -0.163000    -0.030923     -0.000013    -0.000388     0.000310
C     -0.566218    -1.281851     0.037773     -0.000820    -0.000214     0.000094
H      1.453419    -2.004012     0.092529     -0.000153     0.000308    -0.000634
H      2.451910     0.253428    -0.007036     -0.000323    -0.000071     0.000165
H      0.993328     2.244862    -0.135918     -0.000013     0.000166    -0.000286
H     -1.462867     1.977010    -0.149194      0.000411    -0.000495     0.000207
H     -2.461279    -0.279910    -0.037496      0.000042    -0.000057    -0.000112
H     -1.004247    -2.270127     0.085368     -0.000059     0.000436     0.000066
12
轮次1  Inner Iteration 4, |pred_grad|=0.002186
C      0.814602    -1.132053     0.044828      0.000205    -0.000755     0.000310
C      1.375974     0.137056    -0.014468      0.000622     0.000620     0.000299
C      0.556455     1.255875    -0.085428      0.000452     0.000079     0.000189
C     -0.824325     1.105591    -0.094685     -0.000057     0.000452    -0.000596
C     -1.385431    -0.162994    -0.030928     -0.000009    -0.000382     0.000308
C     -0.566205    -1.281848     0.037771     -0.000821    -0.000216     0.000094
H      1.453421    -2.004017     0.092539     -0.000150     0.000305    -0.000634
H      2.451915     0.253430    -0.007039     -0.000325    -0.000071     0.000165
H      0.993328     2.244859    -0.135914     -0.000011     0.000165    -0.000286
H     -1.462873     1.977018    -0.149198      0.000408    -0.000489     0.000205
H     -2.461280    -0.279909    -0.037495      0.000041    -0.000057    -0.000112
H     -1.004246    -2.270134     0.085367     -0.000056     0.000438     0.000066
12
轮次1  Inner Iteration 5, |pred_grad|=0.002173
C      0.814599    -1.132041     0.044823      0.000205    -0.000746     0.000309
C      1.375964     0.137046    -0.014472      0.000628     0.000608     0.000299
C      0.556447     1.255874    -0.085431      0.000442     0.000085     0.000188
C     -0.824324     1.105583    -0.094675     -0.000055     0.000443    -0.000593
C     -1.385430    -0.162988    -0.030933     -0.000006    -0.000377     0.000307
C     -0.566191    -1.281844     0.037770     -0.000822    -0.000218     0.000094
H      1.453424    -2.004022     0.092550     -0.000147     0.000301    -0.000633
H      2.451920     0.253431    -0.007041     -0.000326    -0.000071     0.000165
H      0.993329     2.244856    -0.135909     -0.000010     0.000165    -0.000286
H     -1.462880     1.977026    -0.149201      0.000405    -0.000484     0.000204
H     -2.461280    -0.279909    -0.037493      0.000040    -0.000057    -0.000112
H     -1.004245    -2.270141     0.085366     -0.000053     0.000440     0.000066
12
轮次2  Outer Iteration 0, Energy=-230.7223454212, |grad|=0.002097
C      0.814596    -1.132029     0.044818      0.000366    -0.000562     0.000355
C      1.375954     0.137037    -0.014477      0.000427     0.000430     0.000338
C      0.556440     1.255872    -0.085434      0.000459     0.000125     0.000171
C     -0.824323     1.105576    -0.094666     -0.000824     0.000298    -0.000616
C     -1.385430    -0.162982    -0.030938     -0.000026    -0.000229     0.000372
C     -0.566178    -1.281841     0.037769     -0.000668    -0.000096     0.000004
H      1.453426    -2.004026     0.092560     -0.000100     0.000256    -0.000656
H      2.451925     0.253432    -0.007044      0.000086    -0.000041     0.000175
H      0.993329     2.244854    -0.135904      0.000040     0.000185    -0.000294
H     -1.462886     1.977034    -0.149204      0.000352    -0.000581     0.000187
H     -2.461281    -0.279908    -0.037491      0.000039    -0.000065    -0.000108
H     -1.004244    -2.270148     0.085365     -0.000153     0.000279     0.000074
12
轮次2  Outer Iteration 1, Energy=-230.7221997299, |grad|=0.008600
C      0.814554    -1.132264     0.042470     -0.000252     0.000260    -0.000731
C      1.375099     0.135485    -0.034669     -0.000707    -0.000618    -0.004352
C      0.555847     1.255165    -0.089443     -0.000453    -0.000333    -0.000670
C     -0.824419     1.106453    -0.086729      0.000557     0.000236     0.004628
C     -1.384933    -0.163224    -0.042912      0.000236     0.000198    -0.003131
C     -0.565437    -1.282268     0.028806      0.000891    -0.000061    -0.000755
H      1.452588    -2.001721     0.134246     -0.000049     0.000153     0.003742
H      2.450954     0.252258    -0.030111     -0.000090    -0.000065    -0.000172
H      0.993225     2.244514    -0.119696     -0.000128    -0.000046     0.001720
H     -1.463007     1.979162    -0.135753     -0.000162     0.000332    -0.001170
H     -2.460897    -0.279613    -0.042837     -0.000015     0.000134     0.001006
H     -1.002247    -2.271077     0.081981      0.000172    -0.000190    -0.000117
12
轮次2  Outer Iteration 2, Energy=-230.7223458190, |grad|=0.002457
C      0.814520    -1.132128     0.044306     -0.000282     0.000231    -0.001120
C      1.375119     0.136623    -0.015361     -0.000516    -0.000182     0.001306
C      0.555888     1.255482    -0.085591     -0.000343    -0.000248    -0.000317
C     -0.824372     1.106097    -0.093694      0.000496    -0.000044    -0.000387
C     -1.385212    -0.162671    -0.031337      0.000089     0.000298     0.000491
C     -0.565659    -1.281789     0.037466      0.000685     0.000005     0.000470
H      1.453184    -2.004134     0.100568      0.000062    -0.000126     0.000448
H      2.451008     0.253247    -0.013907     -0.000060    -0.000059    -0.000606
H      0.993353     2.244131    -0.132963     -0.000070    -0.000093     0.000148
H     -1.462950     1.978479    -0.147878     -0.000171     0.000346     0.000019
H     -2.461107    -0.279466    -0.038924     -0.000019     0.000048    -0.000162
H     -1.002446    -2.271000     0.082667      0.000128    -0.000175    -0.000291
12
轮次2  Outer Iteration 3, Energy=-230.7223341489, |grad|=0.005192
C      0.814394    -1.131899     0.045982     -0.000713     0.001035     0.002010
C      1.374946     0.136142    -0.022021     -0.000771    -0.000737    -0.002781
C      0.555717     1.255219    -0.086818     -0.000706    -0.000273     0.000386
C     -0.824325     1.106229    -0.092147      0.001322    -0.000449     0.001438
C     -1.385236    -0.162846    -0.036355      0.000047     0.000391    -0.001636
C     -0.565492    -1.281856     0.034781      0.001244     0.000071    -0.000739
H      1.452900    -2.004319     0.101877      0.000186    -0.000453    -0.000150
H      2.450628     0.253773    -0.010872     -0.000150     0.000098     0.000760
H      0.993593     2.243614    -0.132500     -0.000068    -0.000319     0.000087
H     -1.463028     1.979312    -0.143716     -0.000554     0.000940    -0.000193
H     -2.461219    -0.279281    -0.039627     -0.000076     0.000113     0.000428
H     -1.001550    -2.271219     0.086768      0.000239    -0.000417     0.000390
12
轮次2  Outer Iteration 4, Energy=-230.7223487186, |grad|=0.001396
C      0.814528    -1.131885     0.043802      0.000242    -0.000234    -0.000154
C      1.376145     0.136912    -0.017347      0.000586     0.000298    -0.000181
C      0.556497     1.255804    -0.086075      0.000427     0.000275     0.000012
C     -0.824243     1.105465    -0.093667     -0.000432    -0.000154     0.000094
C     -1.385652    -0.163120    -0.032352     -0.000169    -0.000274     0.000069
C     -0.566283    -1.281849     0.036284     -0.000743     0.000050    -0.000129
H      1.453044    -2.003853     0.098764     -0.000048     0.000117     0.000113
H      2.452060     0.253717    -0.010111      0.000068     0.000070     0.000111
H      0.993614     2.244759    -0.133365      0.000100     0.000062     0.000023
H     -1.462956     1.977230    -0.147596      0.000103    -0.000264    -0.000041
H     -2.461539    -0.279897    -0.037902      0.000001    -0.000071     0.000020
H     -1.003890    -2.270412     0.084919     -0.000134     0.000125     0.000065
12
轮次2  Outer Iteration 5, Energy=-230.7223466474, |grad|=0.001695
C      0.814602    -1.132032     0.047637      0.000124    -0.000165     0.001243
C      1.375473     0.136682    -0.016173     -0.000058    -0.000054    -0.000226
C      0.556069     1.255715    -0.085317     -0.000071     0.000000     0.000024
C     -0.824408     1.106031    -0.092832     -0.000234     0.000287     0.000227
C     -1.385164    -0.162893    -0.033140      0.000158    -0.000009    -0.000731
C     -0.565872    -1.281787     0.038103     -0.000014    -0.000043     0.000260
H      1.453304    -2.004182     0.097616     -0.000037     0.000032    -0.000516
H      2.451407     0.253155    -0.012858     -0.000002    -0.000065    -0.000167
H      0.993211     2.244536    -0.134596     -0.000049     0.000072    -0.000083
H     -1.462997     1.977936    -0.146610      0.000117    -0.000142     0.000068
H     -2.461023    -0.279708    -0.040110      0.000041     0.000033     0.000094
H     -1.003277    -2.270582     0.083632      0.000025     0.000054    -0.000194
12
轮次2  Outer Iteration 6, Energy=-230.7223492183, |grad|=0.001050
C      0.814553    -1.132126     0.044638     -0.000186     0.000186     0.000106
C      1.375189     0.136554    -0.016767     -0.000432    -0.000253    -0.000065
C      0.555916     1.255520    -0.085888     -0.000342    -0.000209     0.000034
C     -0.824354     1.106082    -0.093735      0.000329     0.000149    -0.000015
C     -1.385147    -0.162759    -0.032374      0.000113     0.000211    -0.000045
C     -0.565671    -1.281843     0.036788      0.000588    -0.000074    -0.000017
H      1.453284    -2.004175     0.097991      0.000024    -0.000061    -0.000065
H      2.451054     0.253300    -0.010389     -0.000052    -0.000052     0.000046
H      0.993238     2.244252    -0.133805     -0.000079    -0.000032    -0.000018
H     -1.462925     1.978290    -0.147535     -0.000049     0.000148     0.000004
H     -2.461045    -0.279488    -0.038309      0.000002     0.000050     0.000010
H     -1.002766    -2.270734     0.084736      0.000083    -0.000064     0.000025
12
轮次2  Outer Iteration 7, Energy=-230.7223495171, |grad|=0.000232
C      0.814509    -1.131936     0.044999     -0.000030     0.000059     0.000080
C      1.375642     0.136754    -0.016691      0.000037     0.000038     0.000047
C      0.556197     1.255639    -0.085760      0.000047     0.000000    -0.000013
C     -0.824303     1.105788    -0.093403      0.000045    -0.000074     0.000035
C     -1.385441    -0.162937    -0.032411     -0.000054    -0.000029    -0.000062
C     -0.565980    -1.281811     0.037003     -0.000028     0.000021     0.000065
H      1.453142    -2.004009     0.098709      0.000014    -0.000013    -0.000016
H      2.451542     0.253499    -0.011513      0.000005     0.000013    -0.000079
H      0.993499     2.244404    -0.133786      0.000019    -0.000021    -0.000006
H     -1.462949     1.977874    -0.147149     -0.000033     0.000036     0.000016
H     -2.461334    -0.279725    -0.038953     -0.000013    -0.000012    -0.000022
H     -1.003199    -2.270670     0.084307     -0.000012    -0.000016    -0.000045
12
轮次2  Outer Iteration 8, Energy=-230.7223494250, |grad|=0.000468
C      0.814588    -1.132100     0.044102      0.000115    -0.000176    -0.000057
C      1.375678     0.136739    -0.016823      0.000134     0.000062     0.000012
C      0.556202     1.255697    -0.086137      0.000079     0.000104    -0.000042
C     -0.824347     1.105789    -0.094234     -0.000200     0.000018    -0.000121
C     -1.385359    -0.162923    -0.032333      0.000034    -0.000043     0.000018
C     -0.565990    -1.281850     0.036508     -0.000210     0.000014    -0.000038
H      1.453174    -2.004138     0.098177     -0.000018     0.000019     0.000025