14
轮次1  Outer Iteration 0, Energy=-157.2941502995, |grad|=0.133489
C      1.912979     0.120170     0.270928     -0.054323    -0.034379     0.014468
C      0.478471     0.502329     0.096677      0.006916    -0.000755    -0.026659
C     -0.482606    -0.658045     0.039496      0.023969     0.017958    -0.008972
C     -1.877176    -0.092324    -0.138416      0.042359    -0.021651     0.053465
H      2.459967     1.039840     0.569826     -0.000884     0.022771     0.002421
H      2.335409    -0.157354    -0.720500      0.001402     0.015014    -0.031253
H      2.080600    -0.638671     1.051961      0.000736    -0.003576     0.017949
H      0.373672     1.090459    -0.823276      0.001416    -0.002992    -0.008866
H      0.177281     1.133176     0.956124      0.000395     0.002223     0.018132
H     -0.516524    -1.229855     0.988529     -0.023465    -0.003278     0.018667
H     -0.256861    -1.364850    -0.783907     -0.005492    -0.013417    -0.016630
H     -2.447387    -0.051220     0.803147      0.000123     0.009019     0.017363
H     -1.828372     0.954597    -0.520312      0.002903     0.023850    -0.011119
H     -2.409453    -0.648251    -0.950202      0.003944    -0.010785    -0.038967
14
轮次1  Outer Iteration 1, Energy=-157.2993784431, |grad|=0.091821
C      1.940359     0.116540     0.272799     -0.028896    -0.031641     0.012161
C      0.492675     0.520242     0.098950      0.003964     0.007140    -0.020239
C     -0.489787    -0.636159     0.036850      0.026601     0.005370    -0.006668
C     -1.915919    -0.105358    -0.146351      0.015045    -0.018927     0.039424
H      2.510821     1.012611     0.574036      0.000663     0.013544     0.000055
H      2.367473    -0.173778    -0.702906      0.002178     0.015680    -0.019579
H      2.091890    -0.644943     1.046782      0.000735     0.001134     0.011664
H      0.393764     1.111879    -0.816962      0.000853    -0.004463    -0.005671
H      0.199095     1.151358     0.953775      0.000310    -0.000974     0.012205
H     -0.506030    -1.201868     0.982290     -0.019678     0.001696     0.012670
H     -0.255778    -1.333903    -0.782403     -0.006307    -0.006652    -0.010670
H     -2.484809    -0.079619     0.790204      0.001162     0.008142     0.009663
H     -1.900111     0.932700    -0.527622     -0.000579     0.011965    -0.007340
H     -2.443641    -0.669703    -0.939366      0.003948    -0.002013    -0.027675
14
轮次1  Outer Iteration 2, Energy=-157.3021579962, |grad|=0.062241
C      1.947194     0.113180     0.271658     -0.013362    -0.027511     0.007129
C      0.495108     0.541280     0.101548     -0.001599     0.012358    -0.011943
C     -0.491145    -0.618827     0.035635      0.024957    -0.004701    -0.004423
C     -1.934269    -0.113701    -0.154103     -0.000251    -0.014735     0.024241
H      2.542667     0.983477     0.576556     -0.000349     0.005620    -0.001635
H      2.374296    -0.200226    -0.688127      0.002410     0.014451    -0.008584
H      2.076402    -0.654971     1.037944      0.000520     0.003424     0.006041
H      0.398642     1.138824    -0.809819      0.000001    -0.003975    -0.003309
H      0.208787     1.175285     0.950379      0.000678    -0.002395     0.005881
H     -0.477193    -1.182061     0.976126     -0.013309     0.004783     0.006907
H     -0.241167    -1.308246    -0.778272     -0.006231    -0.002014    -0.004529
H     -2.502034    -0.103496     0.778809      0.002125     0.005818     0.003559
H     -1.936911     0.917958    -0.532837     -0.000933     0.004161    -0.004023
H     -2.460377    -0.688476    -0.925422      0.005342     0.004717    -0.015313
14
轮次1  Outer Iteration 3, Energy=-157.3036701684, |grad|=0.040653
C      1.951871     0.112452     0.271584     -0.007637    -0.018116     0.004304
C      0.500846     0.557217     0.105243      0.000451     0.007804    -0.006806
C     -0.495433    -0.598427     0.034030      0.015519    -0.003198    -0.003127
C     -1.948552    -0.120020    -0.161265     -0.003703    -0.011598     0.014696
H      2.571152     0.962663     0.579550      0.000880     0.003078    -0.000731
H      2.370914    -0.228804    -0.680492      0.002604     0.010715    -0.005247
H      2.061112    -0.663638     1.032887      0.000010     0.002402     0.003533
H      0.409415     1.160480    -0.802983     -0.000150    -0.003622    -0.002232
H      0.222519     1.196933     0.950744      0.000830    -0.001988     0.003228
H     -0.455574    -1.164426     0.970680     -0.007786     0.005500     0.005306
H     -0.227318    -1.281764    -0.777982     -0.004400    -0.000683    -0.002679
H     -2.516178    -0.127206     0.771551      0.001083     0.003217     0.001988
H     -1.972032     0.909442    -0.537998     -0.000570     0.002041    -0.001929
H     -2.472743    -0.714903    -0.915474      0.002868     0.004447    -0.010303
14
轮次1  Outer Iteration 4, Energy=-157.3045008819, |grad|=0.024682
C      1.947635     0.112814     0.270926     -0.002966    -0.011874     0.001772
C      0.497989     0.571351     0.108761     -0.002532     0.008193    -0.003789
C     -0.494171    -0.589778     0.033186      0.009601    -0.006672    -0.001375
C     -1.948570    -0.119732    -0.166398     -0.003349    -0.004422     0.006845
H      2.583753     0.947558     0.577342     -0.000545     0.000369    -0.000058
H      2.355623    -0.258457    -0.672728      0.002098     0.006655    -0.001537
H      2.043672    -0.667814     1.028999      0.000323     0.001182     0.000539
H      0.406950     1.180367    -0.796174     -0.000553    -0.001895    -0.001295
H      0.222853     1.216469     0.950295      0.000757    -0.000316     0.000796
H     -0.433751    -1.165014     0.961964     -0.003179     0.004070     0.002876
H     -0.208819    -1.267351    -0.776754     -0.002369    -0.000955     0.000133
H     -2.516155    -0.137646     0.765441      0.000751     0.000903    -0.000291
H     -1.983589     0.907517    -0.541302     -0.000835     0.000603     0.000168
H     -2.473419    -0.730282    -0.903483      0.002796     0.004158    -0.004784
14
轮次1  Outer Iteration 5, Energy=-157.3049389045, |grad|=0.009845
C      1.951434     0.117169     0.273125     -0.000985    -0.001492     0.000909
C      0.502498     0.573076     0.113898      0.001675    -0.000999    -0.002030
C     -0.499075    -0.579004     0.029030     -0.000044     0.001206    -0.000812
C     -1.953467    -0.120533    -0.170810     -0.000656    -0.003477     0.002323
H      2.597556     0.946931     0.571769      0.000667     0.000228     0.001371
H      2.345423    -0.279582    -0.666769      0.000703     0.003427    -0.001616
H      2.041329    -0.662291     1.034663     -0.000659    -0.000474    -0.000281
H      0.414091     1.186950    -0.788353     -0.000370    -0.002195    -0.001061
H      0.230268     1.219994     0.955097      0.001043    -0.000032     0.000149
H     -0.430073    -1.166588     0.949727     -0.001031     0.003494     0.002198
H     -0.205445    -1.250045    -0.784280     -0.001034    -0.001113     0.000615
H     -2.517267    -0.142484     0.764596     -0.000369    -0.001341     0.000260
H     -1.995366     0.904675    -0.549607      0.000521     0.001061     0.001261
H     -2.481906    -0.748268    -0.892010      0.000539     0.001708    -0.003287
14
轮次1  Outer Iteration 6, Energy=-157.3052587712, |grad|=0.006945
C      1.947609     0.115615     0.274798     -0.000657    -0.001100    -0.000214
C      0.500791     0.580396     0.118041      0.000360     0.001121    -0.001350
C     -0.495388    -0.575910     0.023998      0.000757    -0.000547     0.000366
C     -1.951347    -0.120132    -0.172288      0.000121    -0.000066     0.000111
H      2.601017     0.942853     0.561775     -0.000408    -0.000130     0.001576
H      2.333736    -0.301827    -0.659341      0.000928     0.001602    -0.000719
H      2.035500    -0.657537     1.043379     -0.000057    -0.001321    -0.000932
H      0.413116     1.201262    -0.779891     -0.000677    -0.001048    -0.000766
H      0.227567     1.225297     0.960765      0.000559     0.001199    -0.000463
H     -0.419985    -1.176091     0.936321      0.000126     0.002151     0.001705
H     -0.197160    -1.238402    -0.795095     -0.000476    -0.002071     0.001130
H     -2.509208    -0.134844     0.766868     -0.000711    -0.001925    -0.000307
H     -2.001715     0.900186    -0.561315     -0.000349     0.000782     0.001994
H     -2.484532    -0.760865    -0.877938      0.000484     0.001352    -0.002132
14
轮次1  Outer Iteration 7, Energy=-157.3055497235, |grad|=0.006843
C      1.947604     0.117709     0.277626      0.000567     0.000272    -0.000412
C      0.499384     0.578643     0.121668     -0.000482     0.000276    -0.001179
C     -0.495419    -0.577894     0.017469     -0.000054    -0.000952     0.000444
C     -1.950539    -0.118745    -0.172911     -0.000307     0.000681    -0.000744
H      2.602988     0.947128     0.552112     -0.000285    -0.000664     0.001528
H      2.328376    -0.312596    -0.652346      0.000474     0.001360    -0.000030
H      2.038201    -0.646697     1.054252     -0.000192    -0.001084    -0.001339
H      0.412038     1.205494    -0.772152     -0.000606    -0.000948    -0.000629
H      0.224146     1.218193     0.967569      0.000734     0.001120    -0.000771
H     -0.418036    -1.188640     0.922305      0.000525     0.002041     0.001135
H     -0.197197    -1.231742    -0.808227     -0.000327    -0.002106     0.001733
H     -2.500058    -0.119138     0.771063     -0.000699    -0.002278    -0.000689
H     -1.999361     0.896268    -0.575048     -0.000163     0.000706     0.002321
H     -2.492127    -0.767982    -0.863304      0.000817     0.001577    -0.001367
14
轮次1  Outer Iteration 8, Energy=-157.3058417891, |grad|=0.006916
C      1.946980     0.117988     0.280502      0.000670     0.000765    -0.000516
C      0.499141     0.578542     0.125037     -0.000094    -0.000371    -0.001139
C     -0.494955    -0.577178     0.010571     -0.000518    -0.000072     0.000431
C     -1.950074    -0.118763    -0.173320     -0.000240     0.000441    -0.001077
H      2.603994     0.949696     0.543864     -0.000328    -0.000571     0.001518
H      2.322984    -0.323398    -0.646220      0.000249     0.001088     0.000016
H      2.039041    -0.638405     1.064783     -0.000289    -0.001072    -0.001324
H      0.413230     1.211569    -0.764582     -0.000563    -0.000931    -0.000572
H      0.222183     1.212255     0.974784      0.000710     0.001033    -0.000779
H     -0.416119    -1.197584     0.908697      0.000550     0.002071     0.001035
H     -0.197409    -1.222383    -0.822089     -0.000423    -0.002122     0.001878
H     -2.489891    -0.104314     0.776202     -0.000651    -0.002586    -0.000614
H     -1.999929     0.890229    -0.590296      0.000150     0.000842     0.002442
H     -2.499177    -0.778253    -0.847857      0.000776     0.001486    -0.001299
14
轮次1  Outer Iteration 9, Energy=-157.3061354922, |grad|=0.007015
C      1.946538     0.118030     0.283436      0.000236     0.000953    -0.000401
C      0.499130     0.577907     0.128304      0.000548    -0.001050    -0.001330
C     -0.494558    -0.576666     0.003650     -0.000833     0.000926     0.000283
C     -1.949627    -0.118849    -0.173436      0.000209    -0.000021    -0.000849
H      2.604487     0.952539     0.536393     -0.000195    -0.000220     0.001479
H      2.318789    -0.332315    -0.640797      0.000179     0.000927    -0.000321
H      2.040643    -0.630705     1.074967     -0.000358    -0.001086    -0.001052
H      0.414774     1.217179    -0.757002     -0.000484    -0.000953    -0.000564
H      0.220347     1.205325     0.982296      0.000653     0.000932    -0.000582
H     -0.415102    -1.206075     0.895701      0.000392     0.002110     0.001301
H     -0.198362    -1.213299    -0.836269     -0.000524    -0.002179     0.001667
H     -2.479625    -0.087875     0.781467     -0.000702    -0.002670    -0.000310
H     -2.001287     0.883467    -0.606538      0.000276     0.001090     0.002405
H     -2.506147    -0.788662    -0.832097      0.000603     0.001240    -0.001724
14
轮次1  Inner Iteration 1, |pred_grad|=0.006934
C      1.946538     0.118030     0.283436      0.000241     0.000889    -0.000403
C      0.499130     0.577907     0.128304      0.000504    -0.000696    -0.001326
C     -0.494558    -0.576666     0.003650     -0.000612     0.000616     0.000280
C     -1.949627    -0.118849    -0.173436      0.000198    -0.000039    -0.000919
H      2.604487     0.952539     0.536393     -0.000203    -0.000221     0.001479
H      2.318789    -0.332315    -0.640797      0.000246     0.000932    -0.000319
H      2.040643    -0.630705     1.074967     -0.000336    -0.001086    -0.001054
H      0.414774     1.217179    -0.757002     -0.000509    -0.000947    -0.000564
H      0.220347     1.205325     0.982296      0.000660     0.000932    -0.000584
H     -0.415102    -1.206075     0.895701      0.000407     0.002111     0.001300
H     -0.198362    -1.213299    -0.836269     -0.000529    -0.002177     0.001668
H     -2.479625    -0.087875     0.781467     -0.000702    -0.002674    -0.000312
H     -2.001287     0.883467    -0.606538      0.000268     0.001089     0.002414
H     -2.506147    -0.788662    -0.832097      0.000768     0.001241    -0.001722
14
轮次1  Inner Iteration 2, |pred_grad|=0.006934
C      1.946528     0.117995     0.283452      0.000237     0.000886    -0.000402
C      0.499110     0.577934     0.128357      0.000507    -0.000695    -0.001328
C     -0.494533    -0.576691     0.003639     -0.000610     0.000618     0.000280
C     -1.949635    -0.118848    -0.173399      0.000199    -0.000040    -0.000917
H      2.604495     0.952548     0.536335     -0.000202    -0.000219     0.001478
H      2.318779    -0.332352    -0.640784      0.000246     0.000932    -0.000321
H      2.040657    -0.630662     1.075009     -0.000335    -0.001085    -0.001052
H      0.414795     1.217216    -0.756979     -0.000509    -0.000947    -0.000564
H      0.220321     1.205288     0.982319      0.000660     0.000932    -0.000582
H     -0.415118    -1.206159     0.895649      0.000405     0.002111     0.001302
H     -0.198341    -1.213212    -0.836336     -0.000529    -0.002178     0.001666
H     -2.479597    -0.087769     0.781479     -0.000702    -0.002673    -0.000310
H     -2.001298     0.883424    -0.606634      0.000268     0.001089     0.002413
H     -2.506178    -0.788711    -0.832028      0.000769     0.001241    -0.001725
14
轮次1  Inner Iteration 3, |pred_grad|=0.006934
C      1.946519     0.117959     0.283468      0.000232     0.000883    -0.000401
C      0.499090     0.577962     0.128409      0.000510    -0.000693    -0.001330
C     -0.494509    -0.576715     0.003627     -0.000608     0.000620     0.000280
C     -1.949643    -0.118846    -0.173363      0.000199    -0.000041    -0.000916
H      2.604503     0.952556     0.536276     -0.000201    -0.000217     0.001477
H      2.318769    -0.332389    -0.640771      0.000246     0.000932    -0.000323
H      2.040670    -0.630619     1.075051     -0.000335    -0.001085    -0.001050
H      0.414815     1.217254    -0.756957     -0.000509    -0.000947    -0.000564
H      0.220295     1.205251     0.982342      0.000659     0.000932    -0.000581
H     -0.415134    -1.206242     0.895598      0.000403     0.002110     0.001304
H     -0.198320    -1.213126    -0.836402     -0.000530    -0.002179     0.001664
H     -2.479570    -0.087663     0.781491     -0.000702    -0.002673    -0.000309
H     -2.001308     0.883380    -0.606730      0.000269     0.001090     0.002413
H     -2.506208    -0.788760    -0.831960      0.000769     0.001240    -0.001729
14
轮次1  Inner Iteration 4, |pred_grad|=0.006934
C      1.946509     0.117924     0.283484      0.000227     0.000880    -0.000400
C      0.499070     0.577989     0.128462      0.000512    -0.000692    -0.001332
C     -0.494485    -0.576740     0.003616     -0.000607     0.000622     0.000280
C     -1.949651    -0.118845    -0.173327      0.000200    -0.000042    -0.000914
H      2.604511     0.952565     0.536217     -0.000201    -0.000215     0.001476
H      2.318760    -0.332426    -0.640759      0.000246     0.000932    -0.000325
H      2.040683    -0.630575     1.075092     -0.000335    -0.001085    -0.001048
H      0.414835     1.217291    -0.756935     -0.000508    -0.000948    -0.000564
H      0.220268     1.205214     0.982365      0.000659     0.000933    -0.000580
H     -0.415150    -1.206326     0.895546      0.000401     0.002110     0.001306
H     -0.198299    -1.213039    -0.836468     -0.000531    -0.002180     0.001662
H     -2.479542    -0.087557     0.781504     -0.000702    -0.002673    -0.000308
H     -2.001319     0.883337    -0.606825      0.000269     0.001091     0.002413
H     -2.506239    -0.788810    -0.831891      0.000770     0.001240    -0.001732
14
轮次1  Inner Iteration 5, |pred_grad|=0.006934
C      1.946500     0.117889     0.283500      0.000223     0.000877    -0.000400
C      0.499050     0.578017     0.128515      0.000515    -0.000691    -0.001335
C     -0.494461    -0.576765     0.003605     -0.000605     0.000623     0.000280
C     -1.949658    -0.118843    -0.173290      0.000201    -0.000043    -0.000913
H      2.604519     0.952573     0.536159     -0.000200    -0.000212     0.001476
H      2.318750    -0.332463    -0.640746      0.000246     0.000932    -0.000327
H      2.040697    -0.630532     1.075134     -0.000335    -0.001085    -0.001046
H      0.414855     1.217329    -0.756912     -0.000508    -0.000948    -0.000564
H      0.220242     1.205177     0.982388      0.000659     0.000933    -0.000578
H     -0.415166    -1.206410     0.895494      0.000399     0.002109     0.001308
H     -0.198278    -1.212953    -0.836534     -0.000532    -0.002181     0.001661
H     -2.479514    -0.087451     0.781516     -0.000702    -0.002672    -0.000307
H     -2.001330     0.883294    -0.606921      0.000269     0.001091     0.002412
H     -2.506269    -0.788859    -0.831823      0.000771     0.001239    -0.001735
14
初始采样  Outer Iteration 15, Energy=-157.3061448614, |grad|=0.006708
C      1.946492     0.117855     0.283516      0.000194     0.000479    -0.000318
C      0.499029     0.578044     0.128568      0.000323    -0.000647    -0.000869
C     -0.494437    -0.576789     0.003594     -0.000539     0.000584     0.000201
C     -1.949666    -0.118841    -0.173254      0.000046     0.000081    -0.000417
H      2.604527     0.952582     0.536100     -0.000124    -0.000083     0.001480
H      2.318740    -0.332500    -0.640733      0.000245     0.000953    -0.000347
H      2.040710    -0.630489     1.075175     -0.000373    -0.000929    -0.001176
H      0.414875     1.217367    -0.756890     -0.000452    -0.000858    -0.000727
H      0.220216     1.205140     0.982411      0.000710     0.000727    -0.000856
H     -0.415182    -1.206494     0.895442      0.000326     0.002110     0.001302
H     -0.198257    -1.212866    -0.836599     -0.000546    -0.002076     0.001744
H     -2.479486    -0.087345     0.781528     -0.000620    -0.002656    -0.000512
H     -2.001340     0.883251    -0.607017      0.000251     0.001138     0.002344
H     -2.506300    -0.788908    -0.831754      0.000558     0.001176    -0.001850
14
轮次2  Outer Iteration 0, Energy=-157.3061448614, |grad|=0.006708
C      1.946492     0.117855     0.283516      0.000194     0.000479    -0.000318
C      0.499029     0.578044     0.128568      0.000323    -0.000647    -0.000869
C     -0.494437    -0.576789     0.003594     -0.000539     0.000584     0.000201
C     -1.949666    -0.118841    -0.173254      0.000046     0.000081    -0.000417
H      2.604527     0.952582     0.536100     -0.000124    -0.000083     0.001480
H      2.318740    -0.332500    -0.640733      0.000245     0.000953    -0.000347
H      2.040710    -0.630489     1.075175     -0.000373    -0.000929    -0.001176
H      0.414875     1.217367    -0.756890     -0.000452    -0.000858    -0.000727
H      0.220216     1.205140     0.982411      0.000710     0.000727    -0.000856
H     -0.415182    -1.206494     0.895442      0.000326     0.002110     0.001302
H     -0.198257    -1.212866    -0.836599     -0.000546    -0.002076     0.001744
H     -2.479486    -0.087345     0.781528     -0.000620    -0.002656    -0.000512
H     -2.001340     0.883251    -0.607017      0.000251     0.001138     0.002344
H     -2.506300    -0.788908    -0.831754      0.000558     0.001176    -0.001850
14
轮次2  Outer Iteration 1, Energy=-157.3064395516, |grad|=0.006835
C      1.945478     0.117326     0.286311      0.000057    -0.000127    -0.000327
C      0.498064     0.578432     0.131376     -0.000003     0.000389    -0.001574
C     -0.492886    -0.577683    -0.003392      0.000639    -0.000458     0.000121
C     -1.948912    -0.118722    -0.173216     -0.000251     0.000432    -0.000417
H      2.604502     0.953450     0.530673     -0.000348    -0.000322     0.001182
H      2.315924    -0.339125    -0.635687      0.000457     0.001052    -0.000317
H      2.042047    -0.625016     1.083664     -0.000049    -0.001038    -0.000747
H      0.414665     1.224232    -0.749287     -0.000561    -0.000741    -0.000543
H      0.216743     1.198847     0.989826      0.000475     0.001014    -0.000394
H     -0.411739    -1.215118     0.882938      0.000461     0.002127     0.001508
H     -0.197694    -1.205687    -0.850348     -0.000454    -0.002427     0.001465
H     -2.469033    -0.067555     0.786294     -0.000925    -0.002390    -0.000379
H     -2.003412     0.875187    -0.624834     -0.000170     0.000949     0.002431
H     -2.513827    -0.798562    -0.814230      0.000672     0.001539    -0.002009
14
轮次2  Outer Iteration 2, Energy=-157.3067342760, |grad|=0.007015
C      1.945488     0.117563     0.289095      0.000165     0.000024    -0.000261
C      0.497758     0.577763     0.134351      0.000218     0.000354    -0.002105
C     -0.492634    -0.577914    -0.010214      0.000579    -0.000396     0.000037
C     -1.948791    -0.118787    -0.173466     -0.000414     0.000082    -0.000495
H      2.605185     0.955211     0.526215     -0.000231    -0.000420     0.000996
H      2.314031    -0.344282    -0.631015      0.000483     0.001135    -0.000365
H      2.043890    -0.619347     1.091380     -0.000037    -0.000974    -0.000479
H      0.415649     1.229889    -0.741567     -0.000454    -0.000811    -0.000371
H      0.214385     1.191454     0.997309      0.000367     0.001025    -0.000023
H     -0.410787    -1.223233     0.870461      0.000361     0.002234     0.001692
H     -0.199125    -1.197816    -0.863883     -0.000575    -0.002499     0.001246
H     -2.458163    -0.047969     0.790795     -0.000970    -0.002329    -0.000097
H     -2.005377     0.866549    -0.643304     -0.000164     0.000932     0.002436
H     -2.521589    -0.809076    -0.796070      0.000673     0.001641    -0.002211
14
轮次2  Outer Iteration 3, Energy=-157.3070287609, |grad|=0.006905
C      1.944476     0.117641     0.291587     -0.000046    -0.000169    -0.000165
C      0.496895     0.577362     0.137498      0.000254     0.000396    -0.002121
C     -0.492210    -0.577981    -0.016627      0.000154    -0.000290    -0.000134
C     -1.947566    -0.118614    -0.173683     -0.000055    -0.000122    -0.000279
H      2.604743     0.956774     0.522461     -0.000167    -0.000202     0.000935
H      2.310651    -0.349459    -0.626863      0.000404     0.001053    -0.000410
H      2.044023    -0.614563     1.097847     -0.000146    -0.000786    -0.000506
H      0.415875     1.235672    -0.733878     -0.000342    -0.000765    -0.000336
H      0.211747     1.184348     1.004498      0.000384     0.000816    -0.000041
H     -0.409601    -1.231381     0.858078      0.000257     0.002269     0.001737
H     -0.199804    -1.189510    -0.876598     -0.000706    -0.002402     0.001297
H     -2.445879    -0.028217     0.794746     -0.000807    -0.002429     0.000021
H     -2.005667     0.857828    -0.661961      0.000064     0.001182     0.002342
H     -2.527763    -0.819893    -0.777017      0.000752     0.001448    -0.002341
14
轮次2  Outer Iteration 4, Energy=-157.3073203582, |grad|=0.006741
C      1.944256     0.117610     0.294070      0.000036    -0.000044    -0.000095
C      0.496550     0.577101     0.140961      0.000400     0.000075    -0.001885
C     -0.491792    -0.577386    -0.022743      0.000107    -0.000035    -0.000262
C     -1.947383    -0.118626    -0.174177     -0.000202    -0.000154    -0.000234
H      2.605386     0.957484     0.519799     -0.000091    -0.000195     0.000881
H      2.308216    -0.353972    -0.622956      0.000351     0.000930    -0.000327
H      2.045265    -0.611035     1.103279     -0.000110    -0.000683    -0.000548
H      0.416233     1.241525    -0.725944     -0.000384    -0.000692    -0.000382
H      0.209872     1.177775     1.011685      0.000372     0.000643    -0.000161
H     -0.407752    -1.238756     0.845869      0.000395     0.002298     0.001697
H     -0.199651    -1.180659    -0.888601     -0.000610    -0.002333     0.001368
H     -2.435540    -0.008016     0.797274     -0.000869    -0.002445    -0.000134
H     -2.008779     0.847941    -0.681326      0.000018     0.001170     0.002369
H     -2.534960    -0.830981    -0.757101      0.000588     0.001465    -0.002289
14
轮次2  Outer Iteration 5, Energy=-157.3076078167, |grad|=0.006598
C      1.943227     0.117753     0.296235     -0.000058     0.000001    -0.000164
C      0.495477     0.576918     0.144404      0.000177     0.000242    -0.001818
C     -0.491238    -0.577545    -0.028509     -0.000038    -0.000102    -0.000289
C     -1.946030    -0.118357    -0.174601      0.000141    -0.000054    -0.000210
H      2.604840     0.958313     0.517923     -0.000129    -0.000158     0.000808
H      2.305202    -0.357081    -0.619928      0.000303     0.000824    -0.000326
H      2.045349    -0.608229     1.107716     -0.000159    -0.000649    -0.000479
H      0.415986     1.247443    -0.717936     -0.000256    -0.000541    -0.000363
H      0.207342     1.171377     1.018890      0.000399     0.000641    -0.000165
H     -0.406835    -1.246919     0.834055      0.000274     0.002132     0.001689
H     -0.200114    -1.172908    -0.900245     -0.000728    -0.002391     0.001314
H     -2.423210     0.013288     0.799809     -0.000781    -0.002484     0.000058
H     -2.009494     0.837737    -0.701133      0.000184     0.001286     0.002284
H     -2.540583    -0.841785    -0.736592      0.000669     0.001253    -0.002339
14
轮次2  Outer Iteration 6, Energy=-157.3078890939, |grad|=0.006438
C      1.942911     0.117415     0.298488     -0.000005    -0.000110    -0.000072
C      0.495099     0.576747     0.147854      0.000381     0.000048    -0.001794
C     -0.490764    -0.576718    -0.034220      0.000008     0.000142    -0.000355
C     -1.945792    -0.118387    -0.175181     -0.000088    -0.000135    -0.000167
H      2.604983     0.958530     0.516902     -0.000107    -0.000077     0.000759
H      2.303152    -0.359911    -0.617073      0.000262     0.000730    -0.000295
H      2.046259    -0.606482     1.111615     -0.000110    -0.000574    -0.000481
H      0.416008     1.253135    -0.709921     -0.000343    -0.000580    -0.000343
H      0.205394     1.164724     1.026147      0.000296     0.000492    -0.000179
H     -0.405040    -1.253377     0.822546      0.000393     0.002194     0.001661
H     -0.199751    -1.163914    -0.911515     -0.000603    -0.002227     0.001316
H     -2.412481     0.034710     0.801185     -0.000801    -0.002433     0.000012
H     -2.013076     0.826409    -0.721350      0.000159     0.001297     0.002226
H     -2.546982    -0.852875    -0.715390      0.000558     0.001233    -0.002290
14
轮次2  Outer Iteration 7, Energy=-157.3081619137, |grad|=0.006216
C      1.942350     0.117762     0.300533      0.000011     0.000116    -0.000136
C      0.494162     0.576346     0.151432      0.000100     0.000204    -0.001711
C     -0.490303    -0.577123    -0.039683      0.000058    -0.000218    -0.000361
C     -1.944860    -0.118117    -0.175776      0.000025     0.000030    -0.000195
H      2.604914     0.959132     0.516182     -0.000057    -0.000186     0.000666
H      2.301172    -0.361365    -0.614626      0.000248     0.000695    -0.000240
H      2.046953    -0.604525     1.114952     -0.000141    -0.000517    -0.000414
H      0.415793     1.258805    -0.701638     -0.000169    -0.000440    -0.000305
H      0.203286     1.158156     1.033495      0.000363     0.000577    -0.000110
H     -0.404234    -1.261430     0.811089      0.000336     0.001964     0.001603
H     -0.200322    -1.156732    -0.922493     -0.000679    -0.002329     0.001207
H     -2.400867     0.057132     0.802008     -0.000806    -0.002349     0.000081
H     -2.015205     0.814837    -0.741573      0.000140     0.001288     0.002155
H     -2.552918    -0.862872    -0.693815      0.000571     0.001165    -0.002239
14
轮次2  Outer Iteration 8, Energy=-157.3084236808, |grad|=0.005929
C      1.941582     0.117006     0.302521     -0.000077    -0.000204    -0.000011
C      0.493715     0.576572     0.155057      0.000421    -0.000044    -0.001315
C     -0.489931    -0.575365    -0.044901     -0.000332     0.000619    -0.000448
C     -1.944236    -0.118345    -0.176446      0.000191    -0.000237    -0.000019
H      2.604517     0.958784     0.515977     -0.000126     0.000068     0.000678
H      2.298400    -0.363957    -0.612503      0.000171     0.000499    -0.000235
H      2.047072    -0.604190     1.117658     -0.000095    -0.000450    -0.000513
H      0.415472     1.264845    -0.693513     -0.000351    -0.000393    -0.000412
H      0.201474     1.151815     1.040563      0.000270     0.000222    -0.000450
H     -0.402800    -1.266742     0.800028      0.000322     0.002041     0.001523