14
轮次1  Outer Iteration 0, Energy=-157.2941502995, |grad|=0.133489
C      1.912979     0.120170     0.270928     -0.054323    -0.034379     0.014468
C      0.478471     0.502329     0.096677      0.006916    -0.000755    -0.026659
C     -0.482606    -0.658045     0.039496      0.023969     0.017958    -0.008972
C     -1.877176    -0.092324    -0.138416      0.042359    -0.021651     0.053465
H      2.459967     1.039840     0.569826     -0.000884     0.022771     0.002421
H      2.335409    -0.157354    -0.720500      0.001402     0.015014    -0.031253
H      2.080600    -0.638671     1.051961      0.000736    -0.003576     0.017949
H      0.373672     1.090459    -0.823276      0.001416    -0.002992    -0.008866
H      0.177281     1.133176     0.956124      0.000395     0.002223     0.018132
H     -0.516524    -1.229855     0.988529     -0.023465    -0.003278     0.018667
H     -0.256861    -1.364850    -0.783907     -0.005492    -0.013417    -0.016630
H     -2.447387    -0.051220     0.803147      0.000123     0.009019     0.017363
H     -1.828372     0.954597    -0.520312      0.002903     0.023850    -0.011119
H     -2.409453    -0.648251    -0.950202      0.003944    -0.010785    -0.038967
14
轮次1  Outer Iteration 1, Energy=-157.3024311012, |grad|=0.053274
C      1.979137     0.107690     0.275040     -0.001594    -0.019497     0.006022
C      0.522036     0.558338     0.106113      0.008353     0.003218    -0.006261
C     -0.504810    -0.575630     0.030953      0.018686     0.006211    -0.003517
C     -1.981349    -0.133874    -0.163005     -0.015118    -0.022769     0.015851
H      2.606467     0.952070     0.582835      0.004996     0.000271    -0.002435
H      2.411656    -0.221617    -0.673705      0.005212     0.013849    -0.002809
H      2.091858    -0.664514     1.035788      0.000853     0.006317     0.001958
H      0.437446     1.160416    -0.801533     -0.000854    -0.006912    -0.001210
H      0.244930     1.195235     0.953807     -0.001386    -0.004413     0.003740
H     -0.471915    -1.135206     0.970519     -0.009511     0.009107     0.005272
H     -0.244832    -1.258970    -0.781325     -0.006200     0.002901    -0.002735
H     -2.547561    -0.145392     0.767993      0.001050     0.005005    -0.001209
H     -2.040783     0.890296    -0.545064     -0.003375    -0.002878    -0.001994
H     -2.502280    -0.728843    -0.918342     -0.001112     0.009591    -0.010672
14
轮次1  Outer Iteration 2, Energy=-157.3044298431, |grad|=0.038296
C      1.935949     0.109830     0.267967      0.000308    -0.014028    -0.002428
C      0.489463     0.590892     0.112362     -0.011716     0.016840     0.000630
C     -0.485081    -0.586753     0.034665      0.013978    -0.019506     0.002174
C     -1.943896    -0.117727    -0.171360     -0.007944     0.005012    -0.001412
H      2.590094     0.928849     0.573475     -0.002481    -0.000622     0.000402
H      2.333840    -0.288895    -0.665668      0.001982     0.003639     0.003477
H      2.012730    -0.673428     1.023177     -0.000104     0.001134    -0.003312
H      0.398796     1.205279    -0.788507     -0.000392     0.000172     0.000648
H      0.219071     1.240607     0.949471      0.001337     0.001579    -0.002960
H     -0.400630    -1.169758     0.954590      0.002285     0.002329    -0.000897
H     -0.186709    -1.258826    -0.772294     -0.001983    -0.001444     0.004483
H     -2.508496    -0.146690     0.759923      0.002070    -0.001402    -0.003261
H     -1.988941     0.908785    -0.545090     -0.002052     0.001412     0.001042
H     -2.466190    -0.742165    -0.892637      0.004712     0.004885     0.001414
14
轮次1  Outer Iteration 3, Energy=-157.3053534964, |grad|=0.021812
C      1.952278     0.126215     0.279236      0.000411     0.009046     0.000913
C      0.501402     0.566135     0.121093      0.003225    -0.010728    -0.002832
C     -0.502285    -0.580672     0.016711     -0.008511     0.006843    -0.000558
C     -1.951722    -0.114794    -0.173244      0.002320     0.000449     0.000146
H      2.602053     0.963905     0.551099      0.002109     0.002125     0.003553
H      2.323619    -0.311418    -0.653673     -0.002180    -0.000607    -0.003304
H      2.045417    -0.637188     1.058812     -0.001805    -0.002632    -0.000266
H      0.414636     1.191555    -0.774106      0.000180    -0.001627    -0.000931
H      0.226883     1.208565     0.965705      0.001920     0.000652    -0.000093
H     -0.428642    -1.195782     0.920176      0.000399     0.001281     0.001778
H     -0.202463    -1.235933    -0.809126      0.001305    -0.002588     0.000971
H     -2.501828    -0.121584     0.772471     -0.001482    -0.003285     0.001812
H     -1.986218     0.906227    -0.567372      0.002612     0.004137     0.002033
H     -2.493130    -0.765231    -0.867708     -0.000504    -0.003065    -0.003221
14
轮次1  Outer Iteration 4, Energy=-157.3061806796, |grad|=0.011009
C      1.947661     0.116193     0.285147     -0.001200     0.001629    -0.000130
C      0.501956     0.579045     0.128997      0.003651    -0.001969    -0.001962
C     -0.494212    -0.572222     0.000951     -0.000831     0.005381     0.000277
C     -1.950932    -0.120822    -0.172610      0.002324    -0.000961    -0.000068
H      2.605007     0.953469     0.529433     -0.000856    -0.000196     0.001429
H      2.318650    -0.341528    -0.637406      0.000877     0.000222    -0.001598
H      2.046840    -0.626425     1.083497      0.000735    -0.002114     0.000219
H      0.418137     1.219037    -0.756493     -0.001109    -0.000908    -0.001294
H      0.220208     1.205182     0.984296     -0.000511     0.001211     0.000497
H     -0.416953    -1.205149     0.891751     -0.000578     0.001907     0.002468
H     -0.198421    -1.205857    -0.843039     -0.000187    -0.002627     0.000034
H     -2.481460    -0.090410     0.782948     -0.001636    -0.002308     0.000367
H     -2.007825     0.880777    -0.605404      0.000240     0.000109     0.002761
H     -2.508656    -0.791289    -0.831994     -0.000918     0.000624    -0.003000
14
轮次1  Outer Iteration 5, Energy=-157.3070513997, |grad|=0.009702
C      1.944521     0.116939     0.292501      0.000333    -0.001524    -0.000462
C      0.496629     0.578510     0.138762     -0.001141     0.002017    -0.000825
C     -0.490531    -0.578868    -0.018413      0.002787    -0.003183     0.000003
C     -1.948009    -0.119388    -0.173224     -0.001088     0.000160    -0.000441
H      2.608238     0.954883     0.512915     -0.000410    -0.001802     0.000011
H      2.311290    -0.356401    -0.621299      0.001128     0.002136     0.000978
H      2.045924    -0.607036     1.104848      0.000035     0.000158    -0.001081
H      0.416319     1.238778    -0.731282     -0.000272    -0.000458    -0.000277
H      0.211015     1.183892     1.006205      0.000411     0.000839    -0.000529
H     -0.405842    -1.234101     0.854117      0.000590     0.002565     0.001295
H     -0.200035    -1.187238    -0.880490     -0.001228    -0.002201     0.001753
H     -2.447079    -0.029172     0.793836     -0.000776    -0.001960    -0.001420
H     -2.013062     0.855831    -0.660813     -0.001631    -0.000480     0.002713
H     -2.529377    -0.816629    -0.777589      0.001262     0.003732    -0.001719
14
轮次1  Outer Iteration 6, Energy=-157.3079010040, |grad|=0.010845
C      1.940444     0.114925     0.299600     -0.000019    -0.003642    -0.000448
C      0.494082     0.581110     0.147785     -0.001068     0.004075    -0.000852
C     -0.487691    -0.576429    -0.037512      0.003472    -0.003681    -0.000663
C     -1.945622    -0.120003    -0.174221     -0.002397    -0.000297     0.000011
H      2.607016     0.955051     0.505295     -0.000641    -0.000759     0.000026
H      2.299369    -0.372748    -0.609758      0.000847     0.001633     0.001037
H      2.042848    -0.598078     1.121140      0.000037     0.000379    -0.001148
H      0.416513     1.259759    -0.708047     -0.000390    -0.000251     0.000085
H      0.203337     1.166438     1.026773      0.000267     0.000396    -0.000800
H     -0.398125    -1.254546     0.816752      0.000551     0.002674     0.000952
H     -0.198218    -1.159813    -0.916503     -0.001306    -0.001891     0.002338
H     -2.410241     0.029814     0.802621     -0.000319    -0.002335    -0.001107
H     -2.017175     0.825756    -0.717559     -0.000476     0.000689     0.002273
H     -2.546537    -0.851237    -0.716292      0.001442     0.003011    -0.001705
14
轮次1  Outer Iteration 7, Energy=-157.3086946543, |grad|=0.005943
C      1.940534     0.116968     0.305971     -0.000146    -0.000830    -0.000334
C      0.492093     0.576009     0.158863     -0.000433     0.001187    -0.001209
C     -0.488416    -0.576905    -0.053364      0.000625    -0.001094    -0.000413
C     -1.942940    -0.117619    -0.176477      0.000006     0.000588    -0.000151
H      2.605085     0.961215     0.503486     -0.000189    -0.000136     0.000359
H      2.293982    -0.377329    -0.603162      0.000478     0.000478    -0.000013
H      2.050016    -0.591567     1.131603      0.000091    -0.000226    -0.000333
H      0.415070     1.271269    -0.683938     -0.000206    -0.000316    -0.000209
H      0.196395     1.143152     1.048777      0.000010     0.000421    -0.000102
H     -0.398446    -1.278537     0.783012      0.000631     0.001725     0.001604
H     -0.200285    -1.136513    -0.949576     -0.000699    -0.002054     0.001047
H     -2.376064     0.097516     0.803658     -0.000580    -0.002139    -0.000064
H     -2.023244     0.792448    -0.777185     -0.000237     0.001154     0.001920
H     -2.563780    -0.880108    -0.651592      0.000649     0.001244    -0.002103
14
轮次1  Outer Iteration 8, Energy=-157.3093346538, |grad|=0.005327
C      1.938699     0.115991     0.311215     -0.000077    -0.000741     0.000182
C      0.491019     0.577331     0.169109     -0.000100     0.001126    -0.001266
C     -0.486727    -0.573319    -0.067826      0.001201    -0.000907    -0.001053
C     -1.941954    -0.119320    -0.178434     -0.000712    -0.000730     0.000449
H      2.605610     0.957556     0.510743     -0.000244    -0.000426     0.000017
H      2.288051    -0.373885    -0.601329     -0.000080     0.000852     0.000383
H      2.047465    -0.596815     1.132890     -0.000182     0.000071    -0.000431
H      0.416018     1.290696    -0.658662      0.000075    -0.000024     0.000024
H      0.194778     1.125602     1.070196      0.000576     0.000247    -0.000287
H     -0.395969    -1.293957     0.751696     -0.000123     0.001650     0.000729
H     -0.199170    -1.111574    -0.976913     -0.000703    -0.001533     0.001288
H     -2.344300     0.166697     0.796788     -0.000609    -0.001663    -0.000109
H     -2.035866     0.746115    -0.839894      0.000387     0.000702     0.001563
H     -2.577653    -0.911118    -0.579505      0.000590     0.001377    -0.001490
14
轮次1  Outer Iteration 9, Energy=-157.3097813360, |grad|=0.004130
C      1.939815     0.116036     0.313750      0.000167    -0.000659    -0.000454
C      0.488324     0.571514     0.183931      0.000188    -0.000112     0.000027
C     -0.487821    -0.573651    -0.077310     -0.001276     0.000385     0.000729
C     -1.939997    -0.115316    -0.184122      0.000565     0.000847    -0.000698
H      2.602271     0.961517     0.515103      0.000063     0.000417     0.000324
H      2.288141    -0.368472    -0.603181      0.000702    -0.000278    -0.000358
H      2.058328    -0.600401     1.131378      0.000089    -0.000080    -0.000141
H      0.407596     1.300405    -0.629736     -0.000469    -0.000631    -0.000266
H      0.185953     1.098884     1.095717     -0.001005     0.000018    -0.000134
H     -0.395235    -1.312694     0.726578      0.001177     0.000723     0.001179
H     -0.199459    -1.089474    -0.999803     -0.000451    -0.000580     0.000226
H     -2.311166     0.241496     0.780570      0.000285    -0.001099     0.000539
H     -2.047737     0.702239    -0.903282     -0.000344     0.001463     0.000324
H     -2.589012    -0.932081    -0.509518      0.000310    -0.000414    -0.001296
14
轮次1  Outer Iteration 10, Energy=-157.3100005336, |grad|=0.004621
C      1.937494     0.116229     0.317160     -0.000439     0.000976     0.000775
C      0.487214     0.574571     0.195853     -0.000763     0.000541    -0.001379
C     -0.484874    -0.570308    -0.089746      0.000858     0.000039    -0.001815
C     -1.939203    -0.118684    -0.187057      0.000661    -0.000770     0.001296
H      2.604356     0.956275     0.523759     -0.000033    -0.000255     0.000093
H      2.276881    -0.359349    -0.607061     -0.000752     0.000158     0.000050
H      2.057239    -0.610331     1.125941      0.000196    -0.000332     0.000129
H      0.409607     1.324904    -0.598902      0.000649     0.000596     0.000037
H      0.192511     1.081421     1.121572      0.001321     0.000496     0.000326
H     -0.397683    -1.325785     0.699083     -0.001335    -0.000133     0.000084
H     -0.193274    -1.069869    -1.020723      0.000183    -0.001145    -0.000228
H     -2.287991     0.311479     0.756002     -0.001062    -0.000173    -0.000061
H     -2.062155     0.642110    -0.962036      0.000788    -0.000538     0.000849
H     -2.600121    -0.952663    -0.433773     -0.000272     0.000540    -0.000157
14
轮次1  Outer Iteration 11, Energy=-157.3100379313, |grad|=0.002719
C      1.938367     0.114804     0.313619      0.000226    -0.000992    -0.000396
C      0.485761     0.571139     0.209622      0.000386     0.000319     0.000624
C     -0.485501    -0.569957    -0.086977      0.000082    -0.000490     0.001106
C     -1.938614    -0.116031    -0.194990     -0.000396    -0.000210    -0.000621
H      2.603079     0.955747     0.523214     -0.000276    -0.000193    -0.000389
H      2.275754    -0.349259    -0.617009      0.000263     0.000459     0.000224
H      2.064514    -0.617541     1.115506     -0.000407     0.000352    -0.000035
H      0.398243     1.331197    -0.574413     -0.000073    -0.000231     0.000039
H      0.189124     1.061397     1.143174     -0.000451    -0.000304    -0.000288
H     -0.396950    -1.330104     0.696609      0.000488     0.000273    -0.000235
H     -0.190021    -1.059402    -1.020939     -0.000462     0.000754     0.000400
H     -2.272893     0.355710     0.732992      0.000684    -0.000034    -0.000118
H     -2.068304     0.611211    -1.001523     -0.000400     0.000059    -0.000218
H     -2.602560    -0.958911    -0.398810      0.000336     0.000238    -0.000093
14
轮次1  Outer Iteration 12, Energy=-157.3100433143, |grad|=0.001017
C      1.939155     0.116099     0.314251      0.000019    -0.000052     0.000097
C      0.485690     0.570108     0.207356     -0.000049    -0.000076     0.000059
C     -0.486040    -0.571146    -0.088555     -0.000213     0.000090    -0.000580
C     -1.938927    -0.115419    -0.193626      0.000002     0.000221     0.000380
H      2.602954     0.958204     0.524007      0.000101     0.000131     0.000132
H      2.277053    -0.350751    -0.615240      0.000030    -0.000210    -0.000014
H      2.067527    -0.615663     1.116685      0.000213    -0.000009    -0.000087
H      0.398378     1.329222    -0.577797     -0.000234    -0.000054     0.000013
H      0.189153     1.062744     1.139972     -0.000094     0.000034    -0.000011
H     -0.399348    -1.330187     0.696762      0.000045     0.000087     0.000036
H     -0.190050    -1.064098    -1.021264      0.000249    -0.000153    -0.000036
H     -2.276206     0.350241     0.736650     -0.000197     0.000060     0.000039
H     -2.065798     0.617412    -0.995475      0.000125     0.000112    -0.000100
H     -2.603542    -0.956765    -0.403653      0.000004    -0.000181     0.000071
14
轮次1  Outer Iteration 13, Energy=-157.3100437768, |grad|=0.000730
C      1.938818     0.116089     0.313935     -0.000109     0.000232    -0.000007
C      0.485999     0.571108     0.207121     -0.000033     0.000026    -0.000205
C     -0.485857    -0.570745    -0.087067      0.000086     0.000082     0.000348
C     -1.938926    -0.116239    -0.193899      0.000104    -0.000097    -0.000214
H      2.603401     0.957435     0.523772      0.000033     0.000057     0.000036
H      2.276001    -0.350499    -0.615917     -0.000061    -0.000066    -0.000085
H      2.065653    -0.616055     1.116375     -0.000032    -0.000060     0.000067
H      0.400319     1.329809    -0.578671      0.000214     0.000126    -0.000009
H      0.190859     1.064772     1.139665      0.000114     0.000017     0.000081
H     -0.399551    -1.329952     0.698269     -0.000107    -0.000219     0.000041
H     -0.190608    -1.063914    -1.019857     -0.000116    -0.000031    -0.000083
H     -2.277236     0.347047     0.737114      0.000064    -0.000056     0.000015
H     -2.065714     0.618287    -0.994041     -0.000024    -0.000002     0.000034
H     -2.603156    -0.957144    -0.406724     -0.000135    -0.000010    -0.000019
14
轮次1  Outer Iteration 14, Energy=-157.3100442161, |grad|=0.000234
C      1.938771     0.115822     0.313994      0.000031    -0.000044    -0.000020
C      0.485886     0.570941     0.207311     -0.000015     0.000028     0.000063
C     -0.485769    -0.570689    -0.087549      0.000061    -0.000075    -0.000059
C     -1.938864    -0.115993    -0.193768     -0.000052     0.000013    -0.000001
H      2.603209     0.957002     0.524464     -0.000037    -0.000054    -0.000055
H      2.276498    -0.349693    -0.616071      0.000003     0.000062     0.000035
H      2.065479    -0.616810     1.115903     -0.000038     0.000013     0.000014
H      0.399453     1.329616    -0.578348     -0.000006    -0.000030     0.000001
H      0.190151     1.064172     1.139830      0.000004    -0.000003    -0.000006
H     -0.398924    -1.329463     0.697945      0.000026     0.000055    -0.000010
H     -0.190120    -1.063662    -1.020211      0.000000     0.000017     0.000024
H     -2.276686     0.348870     0.736624     -0.000007     0.000002    -0.000019
H     -2.066125     0.617145    -0.995082     -0.000017    -0.000048     0.000039
H     -2.602959    -0.957257    -0.404966      0.000047     0.000065    -0.000007
14
轮次1  Inner Iteration 1, |pred_grad|=0.000181
C      1.938771     0.115822     0.313994      0.000008    -0.000016    -0.000028
C      0.485886     0.570941     0.207311     -0.000000     0.000028     0.000021
C     -0.485769    -0.570689    -0.087549      0.000020    -0.000022     0.000071
C     -1.938864    -0.115993    -0.193768     -0.000013    -0.000029    -0.000033
H      2.603209     0.957002     0.524464     -0.000032     0.000000    -0.000017
H      2.276498    -0.349693    -0.616071      0.000003     0.000077     0.000006
H      2.065479    -0.616810     1.115903     -0.000015     0.000013    -0.000001
H      0.399453     1.329616    -0.578348      0.000009    -0.000003     0.000001
H      0.190151     1.064172     1.139830      0.000004    -0.000027     0.000004
H     -0.398924    -1.329463     0.697945      0.000021     0.000034    -0.000008
H     -0.190120    -1.063662    -1.020211     -0.000063     0.000054     0.000006
H     -2.276686     0.348870     0.736624      0.000053    -0.000010    -0.000008
H     -2.066125     0.617145    -0.995082     -0.000022     0.000006    -0.000010
H     -2.602959    -0.957257    -0.404966      0.000039     0.000010    -0.000004
14
轮次1  Inner Iteration 2, |pred_grad|=0.000181
C      1.938771     0.115822     0.313995      0.000008    -0.000016    -0.000028
C      0.485886     0.570941     0.207311     -0.000000     0.000028     0.000021
C     -0.485769    -0.570689    -0.087549      0.000020    -0.000022     0.000071
C     -1.938864    -0.115992    -0.193768     -0.000013    -0.000029    -0.000033
H      2.603209     0.957002     0.524464     -0.000032     0.000000    -0.000017
H      2.276498    -0.349694    -0.616071      0.000003     0.000077     0.000006
H      2.065480    -0.616810     1.115903     -0.000015     0.000013    -0.000001
H      0.399453     1.329616    -0.578348      0.000009    -0.000003     0.000001
H      0.190151     1.064172     1.139830      0.000004    -0.000027     0.000004
H     -0.398924    -1.329463     0.697945      0.000021     0.000034    -0.000008
H     -0.190120    -1.063662    -1.020211     -0.000063     0.000054     0.000006
H     -2.276686     0.348870     0.736624      0.000053    -0.000010    -0.000008
H     -2.066125     0.617145    -0.995081     -0.000022     0.000006    -0.000010
H     -2.602959    -0.957257    -0.404966      0.000039     0.000010    -0.000004
14
轮次1  Inner Iteration 3, |pred_grad|=0.000181
C      1.938771     0.115822     0.313995      0.000008    -0.000016    -0.000028
C      0.485886     0.570941     0.207311     -0.000000     0.000028     0.000021
C     -0.485769    -0.570689    -0.087550      0.000020    -0.000022     0.000071
C     -1.938864    -0.115992    -0.193768     -0.000013    -0.000029    -0.000033
H      2.603209     0.957002     0.524464     -0.000032     0.000000    -0.000017
H      2.276498    -0.349694    -0.616071      0.000003     0.000077     0.000006
H      2.065480    -0.616810     1.115903     -0.000015     0.000013    -0.000001
H      0.399453     1.329616    -0.578348      0.000009    -0.000003     0.000001
H      0.190151     1.064172     1.139830      0.000004    -0.000027     0.000004
H     -0.398924    -1.329463     0.697945      0.000021     0.000034    -0.000008
H     -0.190120    -1.063662    -1.020211     -0.000063     0.000054     0.000006
H     -2.276687     0.348870     0.736624      0.000053    -0.000010    -0.000008
H     -2.066125     0.617144    -0.995081     -0.000022     0.000006    -0.000010
H     -2.602959    -0.957257    -0.404966      0.000039     0.000010    -0.000004
14
轮次1  Inner Iteration 4, |pred_grad|=0.000180
C      1.938771     0.115822     0.313995      0.000008    -0.000016    -0.000028
C      0.485886     0.570941     0.207311     -0.000000     0.000028     0.000021
C     -0.485769    -0.570689    -0.087550      0.000020    -0.000022     0.000071
C     -1.938864    -0.115992    -0.193767     -0.000013    -0.000029    -0.000033
H      2.603209     0.957002     0.524464     -0.000032     0.000000    -0.000017
H      2.276498    -0.349695    -0.616071      0.000003     0.000077     0.000006
H      2.065480    -0.616810     1.115903     -0.000015     0.000013    -0.000001
H      0.399452     1.329616    -0.578348      0.000009    -0.000003     0.000001
H      0.190151     1.064172     1.139830      0.000004    -0.000027     0.000004
H     -0.398924    -1.329464     0.697945      0.000021     0.000034    -0.000008
H     -0.190119    -1.063663    -1.020211     -0.000063     0.000054     0.000006
H     -2.276687     0.348870     0.736624      0.000053    -0.000010    -0.000008
H     -2.066124     0.617144    -0.995081     -0.000022     0.000006    -0.000010
H     -2.602959    -0.957257    -0.404966      0.000039     0.000010    -0.000004
14
轮次1  Inner Iteration 5, |pred_grad|=0.000180
C      1.938771     0.115822     0.313995      0.000008    -0.000016    -0.000028
C      0.485886     0.570941     0.207311     -0.000000     0.000028     0.000021
C     -0.485769    -0.570689    -0.087551      0.000020    -0.000022     0.000071
C     -1.938864    -0.115992    -0.193767     -0.000013    -0.000029    -0.000032
H      2.603209     0.957002     0.524464     -0.000032     0.000000    -0.000017
H      2.276498    -0.349695    -0.616072      0.000003     0.000077     0.000006
H      2.065480    -0.616811     1.115903     -0.000015     0.000013    -0.000001
H      0.399452     1.329616    -0.578348      0.000009    -0.000003     0.000001
H      0.190151     1.064172     1.139830      0.000004    -0.000027     0.000004
H     -0.398924    -1.329464     0.697945      0.000021     0.000034    -0.000008
H     -0.190119    -1.063663    -1.020211     -0.000063     0.000054     0.000006
H     -2.276687     0.348870     0.736624      0.000053    -0.000010    -0.000008
H     -2.066124     0.617144    -0.995081     -0.000022     0.000006    -0.000010
H     -2.602960    -0.957257    -0.404966      0.000039     0.000010    -0.000004
14
Outer Iteration 20, Energy=-157.3100442166, |grad|=0.000229
C      1.938771     0.115822     0.313995      0.000029    -0.000042    -0.000018
C      0.485886     0.570941     0.207311     -0.000014     0.000025     0.000062
C     -0.485769    -0.570689    -0.087551      0.000059    -0.000071    -0.000063
C     -1.938864    -0.115992    -0.193767     -0.000050     0.000015     0.000001
H      2.603210     0.957002     0.524464     -0.000037    -0.000054    -0.000054
H      2.276498    -0.349696    -0.616072      0.000004     0.000061     0.000033
H      2.065480    -0.616811     1.115903     -0.000038     0.000013     0.000014
H      0.399452     1.329616    -0.578348     -0.000006    -0.000030     0.000001
H      0.190151     1.064172     1.139830      0.000004    -0.000002    -0.000005
H     -0.398924    -1.329464     0.697945      0.000026     0.000053    -0.000007
H     -0.190118    -1.063663    -1.020211      0.000001     0.000016     0.000024
H     -2.276688     0.348870     0.736624     -0.000008     0.000002    -0.000019
H     -2.066124     0.617144    -0.995081     -0.000017    -0.000048     0.000040
H     -2.602960    -0.957258    -0.404966      0.000045     0.000063    -0.000008
14
轮次2  Outer Iteration 0, Energy=-157.3100442166, |grad|=0.000229
C      1.938771     0.115822     0.313995      0.000029    -0.000042    -0.000018
C      0.485886     0.570941     0.207311     -0.000014     0.000025     0.000062
C     -0.485769    -0.570689    -0.087551      0.000059    -0.000071    -0.000063
C     -1.938864    -0.115992    -0.193767     -0.000050     0.000015     0.000001
H      2.603210     0.957002     0.524464     -0.000037    -0.000054    -0.000054
H      2.276498    -0.349696    -0.616072      0.000004     0.000061     0.000033
H      2.065480    -0.616811     1.115903     -0.000038     0.000013     0.000014
H      0.399452     1.329616    -0.578348     -0.000006    -0.000030     0.000001
H      0.190151     1.064172     1.139830      0.000004    -0.000002    -0.000005
H     -0.398924    -1.329464     0.697945      0.000026     0.000053    -0.000007
H     -0.190118    -1.063663    -1.020211      0.000001     0.000016     0.000024
H     -2.276688     0.348870     0.736624     -0.000008     0.000002    -0.000019
H     -2.066124     0.617144    -0.995081     -0.000017    -0.000048     0.000040
H     -2.602960    -0.957258    -0.404966      0.000045     0.000063    -0.000008
