15
轮次1  Outer Iteration 0, Energy=-231.7140836940, |grad|=2.067251
C     -1.583414     0.982860     0.178165      0.039324     0.396423     0.402102
C     -0.697102    -0.483512     0.468817      0.765840    -0.576800    -0.807470
C      0.120018    -0.744683    -0.258376     -1.070942     0.410189     0.530715
C      1.449642    -0.105250    -0.526391      0.253582    -0.096274     0.440206
O      2.202756     0.469943     0.253242     -0.048304    -0.072486    -0.443016
H     -2.635162     0.411659    -0.332236     -0.098671    -0.082914    -0.069945
H     -1.811917     1.413406     0.969211      0.065231    -0.185503    -0.274334
H     -1.172048     1.309086    -0.746844     -0.017494    -0.074700    -0.004759
H     -1.476196    -1.049777     0.687492      0.107212     0.126850    -0.051773
H     -0.235151    -0.002368     1.372800      0.021351     0.050382    -0.018063
H      0.894460    -1.794778     0.130112      0.091300    -0.042701    -0.024816
H      0.090930    -1.270291    -1.048402      0.083701     0.117775     0.261282
H      1.972910    -0.614938    -1.326546     -0.004120     0.037721    -0.011212
H      0.962749     0.802848    -1.263066     -0.041779     0.040569    -0.027026
H      1.570538     0.370283     1.122651     -0.146230    -0.048531     0.098108
15
轮次1  Outer Iteration 1, Energy=-231.8807906041, |grad|=1.225849
C     -1.629589     0.990052     0.189600      0.053974     0.353281     0.304043
C     -0.754878    -0.471585     0.509345      0.292105    -0.402253    -0.343718
C      0.163742    -0.771922    -0.300898     -0.569693     0.286713     0.116295
C      1.494261    -0.115018    -0.558239      0.198435    -0.149990     0.347848
O      2.247029     0.483124     0.272411      0.017439    -0.021421    -0.339226
H     -2.672226     0.436535    -0.317721     -0.094258    -0.079475    -0.067619
H     -1.871409     1.449636     1.004152      0.039500    -0.137383    -0.179132
H     -1.210996     1.316169    -0.735476     -0.018062    -0.072951    -0.006387
H     -1.548042    -1.049327     0.732368      0.070581     0.110423    -0.036560
H     -0.299623     0.011479     1.413503      0.011881     0.058134    -0.006851
H      0.919540    -1.816924     0.106629      0.100980    -0.054795    -0.023003
H      0.132188    -1.320191    -1.113449      0.084273     0.072696     0.189777
H      2.035593    -0.623371    -1.348900     -0.006807     0.034671    -0.018342
H      1.020064     0.785260    -1.300965     -0.047499     0.042709    -0.036261
H      1.627358     0.390573     1.128269     -0.132849    -0.040359     0.099138
15
轮次1  Outer Iteration 2, Energy=-231.9723443451, |grad|=0.928433
C     -1.617625     0.970952     0.173303      0.078236     0.282767     0.190351
C     -0.770263    -0.476667     0.533932      0.211661    -0.327742    -0.221316
C      0.173606    -0.802997    -0.326586     -0.438875     0.287644     0.068976
C      1.491302    -0.098369    -0.583831      0.148122    -0.181192     0.250136
O      2.229888     0.522846     0.324083      0.046840     0.022874    -0.203454
H     -2.651066     0.468985    -0.306325     -0.083998    -0.065977    -0.059842
H     -1.860540     1.481961     1.017488      0.009240    -0.083895    -0.078531
H     -1.201506     1.302595    -0.758536     -0.019501    -0.065381    -0.013011
H     -1.577257    -1.080446     0.778534      0.025629     0.074945    -0.021766
H     -0.302389    -0.004204     1.427186      0.006825     0.055369    -0.007867
H      0.883709    -1.834360     0.101170      0.094109    -0.065042    -0.013498
H      0.109434    -1.383185    -1.171372      0.075467     0.016518     0.106917
H      2.059316    -0.593607    -1.365629     -0.012774     0.031792    -0.026290
H      1.035156     0.789592    -1.316082     -0.048045     0.044877    -0.045482
H      1.651248     0.431394     1.153295     -0.092935    -0.027558     0.074678
15
轮次1  Outer Iteration 3, Energy=-232.0349687203, |grad|=0.702028
C     -1.614763     0.948885     0.166046      0.072173     0.236467     0.138595
C     -0.788749    -0.469930     0.564568      0.117618    -0.263018    -0.096930
C      0.195929    -0.829419    -0.352228     -0.307466     0.253801    -0.015756
C      1.495553    -0.080814    -0.612159      0.132788    -0.170365     0.203878
O      2.197216     0.539655     0.352683      0.018651     0.026539    -0.120737
H     -2.624626     0.495852    -0.287064     -0.063124    -0.048982    -0.047853
H     -1.856701     1.499805     1.012267     -0.001352    -0.063817    -0.043837
H     -1.197424     1.295411    -0.766430     -0.020617    -0.056781    -0.018121
H     -1.594601    -1.099303     0.822576      0.004486     0.057151    -0.013425
H     -0.313039    -0.011798     1.450761      0.000149     0.051045    -0.009972
H      0.852511    -1.831331     0.094038      0.082411    -0.067831    -0.008107
H      0.094318    -1.428602    -1.208177      0.069026    -0.007828     0.073463
H      2.095203    -0.565209    -1.376945     -0.015441     0.032659    -0.028274
H      1.070917     0.789432    -1.324830     -0.038077     0.038506    -0.041796
H      1.641268     0.441857     1.145525     -0.051228    -0.017546     0.028874
15
轮次1  Outer Iteration 4, Energy=-232.0773523437, |grad|=0.545711
C     -1.600764     0.920231     0.152410      0.060031     0.181357     0.087095
C     -0.792290    -0.460706     0.583192      0.080732    -0.215618    -0.035909
C      0.210382    -0.852305    -0.371407     -0.230777     0.227408    -0.042485
C      1.484794    -0.058652    -0.640163      0.108296    -0.150236     0.145684
O      2.161413     0.555429     0.383618      0.010415     0.032148    -0.056463
H     -2.589145     0.511022    -0.273804     -0.036524    -0.031025    -0.033340
H     -1.838254     1.514689     0.999308     -0.009742    -0.042381    -0.013491
H     -1.180676     1.285427    -0.776674     -0.020915    -0.047947    -0.020864
H     -1.588105    -1.119813     0.854223     -0.008356     0.041548    -0.008340
H     -0.302264    -0.022182     1.464255     -0.002660     0.045195    -0.011436
H      0.810182    -1.815106     0.090345      0.062850    -0.060445    -0.005636
H      0.059776    -1.467218    -1.234548      0.059432    -0.027483     0.047592
H      2.111366    -0.540095    -1.387443     -0.017529     0.029796    -0.031183
H      1.085375     0.792219    -1.330185     -0.027901     0.025987    -0.035534
H      1.621222     0.451550     1.167501     -0.027351    -0.008306     0.014310
15
轮次1  Outer Iteration 5, Energy=-232.1067688633, |grad|=0.413365
C     -1.594520     0.892449     0.142526      0.043691     0.131792     0.055923
C     -0.793806    -0.443864     0.596283      0.054616    -0.169112     0.001141
C      0.227543    -0.868906    -0.380392     -0.163980     0.187621    -0.051324
C      1.476050    -0.037564    -0.664120      0.087817    -0.114630     0.108958
O      2.134968     0.556179     0.395228     -0.003517     0.026465    -0.026516
H     -2.567234     0.514897    -0.267217     -0.013802    -0.016477    -0.020340
H     -1.830143     1.522142     0.981583     -0.012544    -0.028605    -0.000172
H     -1.166416     1.286672    -0.774894     -0.019209    -0.038441    -0.021714
H     -1.571336    -1.137978     0.872050     -0.014915     0.028938    -0.005664
H     -0.293447    -0.030186     1.478639     -0.003568     0.038200    -0.011995
H      0.775130    -1.788560     0.095394      0.038927    -0.042284    -0.008628
H      0.023644    -1.489926    -1.245232      0.049010    -0.038388     0.032102
H      2.127020    -0.525207    -1.387828     -0.016199     0.026502    -0.029431
H      1.104207     0.800685    -1.330740     -0.014399     0.011823    -0.022890
H      1.601350     0.443657     1.169349     -0.011928    -0.003407     0.000549
15
轮次1  Outer Iteration 6, Energy=-232.1272487036, |grad|=0.301256
C     -1.592673     0.868041     0.130578      0.034593     0.091193     0.038821
C     -0.793157    -0.424042     0.602448      0.033893    -0.125632     0.016732
C      0.243239    -0.881203    -0.380125     -0.111071     0.143538    -0.048221
C      1.463456    -0.017649    -0.685222      0.066056    -0.080682     0.074382
O      2.124129     0.548478     0.400756     -0.004074     0.021382    -0.012540
H     -2.559724     0.510550    -0.273710     -0.004266    -0.008346    -0.012399
H     -1.827760     1.525916     0.957057     -0.011864    -0.019463     0.003727
H     -1.149788     1.295998    -0.766772     -0.015909    -0.029055    -0.019934
H     -1.543436    -1.155259     0.876497     -0.014131     0.019814    -0.005298
H     -0.285039    -0.040215     1.492011     -0.001948     0.029960    -0.010436
H      0.754010    -1.766973     0.109853      0.018284    -0.023194    -0.012200
H     -0.016892    -1.493366    -1.243964      0.038389    -0.040702     0.024025
H      2.130129    -0.521101    -1.386067     -0.013400     0.019613    -0.025892
H      1.104977     0.815706    -1.333538     -0.006848     0.002608    -0.015018
H      1.601539     0.429612     1.180825     -0.007704    -0.001034     0.004251
15
轮次1  Outer Iteration 7, Energy=-232.1415731390, |grad|=0.211194
C     -1.597661     0.848855     0.116937      0.027846     0.058094     0.027599
C     -0.794482    -0.404691     0.606103      0.017592    -0.084407     0.018960
C      0.258131    -0.891145    -0.368560     -0.072632     0.107326    -0.040070
C      1.450332    -0.000689    -0.699582      0.046162    -0.051579     0.054431
O      2.129342     0.535468     0.392595     -0.010577     0.012938    -0.000849
H     -2.559502     0.502381    -0.292171     -0.001493    -0.003945    -0.007280
H     -1.836845     1.528163     0.930894     -0.009732    -0.011713     0.004271
H     -1.132585     1.312847    -0.752081     -0.011848    -0.020395    -0.016250
H     -1.516021    -1.172134     0.872934     -0.010979     0.011429    -0.005166
H     -0.287290    -0.051898     1.508496     -0.000038     0.020819    -0.008203
H      0.750446    -1.758479     0.136405      0.008423    -0.014556    -0.010080
H     -0.056533    -1.478265    -1.235995      0.027183    -0.037647     0.016826
H      2.127040    -0.520568    -1.379312     -0.009154     0.013106    -0.018104
H      1.097486     0.836658    -1.329142     -0.001819     0.000220    -0.009208
H      1.621153     0.407987     1.173107      0.001066     0.000312    -0.006879
15
轮次1  Outer Iteration 8, Energy=-232.1511662198, |grad|=0.133812
C     -1.596809     0.832331     0.096943      0.019367     0.033078     0.018261
C     -0.791087    -0.388926     0.611931      0.005601    -0.049467     0.015965
C      0.272348    -0.904218    -0.351438     -0.042800     0.073194    -0.029025
C      1.430510     0.015007    -0.713768      0.028949    -0.027665     0.029108
O      2.133583     0.521545     0.385005      0.000397     0.008987    -0.012054
H     -2.551360     0.491144    -0.321465     -0.000142    -0.001203    -0.003146
H     -1.839721     1.530291     0.896162     -0.005930    -0.006793     0.002198
H     -1.103813     1.325660    -0.741026     -0.007401    -0.012620    -0.011872
H     -1.488188    -1.182957     0.875098     -0.006081     0.005376    -0.004792
H     -0.291649    -0.061098     1.528602      0.001322     0.012041    -0.004927
H      0.758663    -1.758579     0.160382      0.003482    -0.008908    -0.006562
H     -0.095586    -1.449219    -1.225789      0.017984    -0.029154     0.011496
H      2.111109    -0.511897    -1.385342     -0.006282     0.006451    -0.011565
H      1.062316     0.855339    -1.320422     -0.001093    -0.001211    -0.006752
H      1.642696     0.380067     1.185754     -0.007375    -0.002106     0.013666
15
轮次1  Outer Iteration 9, Energy=-232.1565728790, |grad|=0.075168
C     -1.606955     0.817803     0.078799      0.010554     0.014319     0.010491
C     -0.795937    -0.377366     0.616544     -0.002126    -0.020820     0.007540
C      0.284816    -0.919825    -0.325566     -0.018648     0.034595    -0.017038
C      1.419349     0.020274    -0.713583      0.009745    -0.012834     0.020374
O      2.170401     0.514240     0.362189     -0.013203     0.002763     0.021320
H     -2.547761     0.473547    -0.362124     -0.000856    -0.000576    -0.000349
H     -1.865639     1.523376     0.869780     -0.002294    -0.001262     0.001220
H     -1.083056     1.345603    -0.718349     -0.003578    -0.006891    -0.006219
H     -1.479920    -1.188919     0.868675     -0.002650     0.001817    -0.004348
H     -0.319708    -0.070995     1.553185      0.000113     0.004483    -0.002216
H      0.763959    -1.767655     0.184813      0.001664    -0.001793    -0.004645
H     -0.132553    -1.403021    -1.215023      0.007256    -0.018243     0.005882
H      2.098053    -0.509749    -1.384864     -0.001408     0.002542    -0.003382
H      1.037032     0.867830    -1.291979      0.001415    -0.000644    -0.001327
H      1.710930     0.369348     1.158131      0.014017     0.002543    -0.027303
15
轮次1  Outer Iteration 10, Energy=-232.1587137210, |grad|=0.037495
C     -1.592838     0.803975     0.053534      0.002712     0.004447     0.000479
C     -0.772920    -0.364035     0.632412      0.001821    -0.004876     0.004877
C      0.299946    -0.934895    -0.303430     -0.000325     0.012073     0.002648
C      1.398456     0.029475    -0.729358      0.003645     0.001445    -0.005855
O      2.155610     0.487567     0.359181      0.001224     0.000906    -0.019891
H     -2.517621     0.448229    -0.409289     -0.002225     0.000835     0.000648
H     -1.872734     1.514072     0.832911      0.001969    -0.000059    -0.000524
H     -1.047932     1.356677    -0.712564     -0.001347    -0.001929    -0.003077
H     -1.450516    -1.178976     0.897456     -0.000583    -0.000361    -0.003461
H     -0.308609    -0.058753     1.576388      0.000099    -0.001755     0.001057
H      0.772994    -1.789918     0.202376      0.000609    -0.004892     0.003892
H     -0.164356    -1.347507    -1.204433      0.003868    -0.002707     0.000847
H      2.073223    -0.484546    -1.416335     -0.001747     0.000013    -0.001224
H      0.989363     0.886588    -1.275004      0.000582     0.002410    -0.002111
H      1.690945     0.326538     1.176784     -0.010301    -0.005551     0.021695
15
轮次1  Outer Iteration 11, Energy=-232.1596504728, |grad|=0.022110
C     -1.624653     0.796308     0.052759     -0.002006    -0.002888    -0.000599
C     -0.779852    -0.346397     0.629997     -0.002020     0.004969    -0.001129
C      0.293674    -0.928123    -0.305764      0.002942    -0.003685    -0.002674
C      1.421028     0.011694    -0.716994     -0.000781    -0.000342     0.000095
O      2.228668     0.462342     0.346224      0.007090     0.007332    -0.005905
H     -2.514787     0.411085    -0.443051      0.002093     0.001169     0.004575
H     -1.958054     1.479727     0.837097      0.001903     0.002685    -0.000418
H     -1.078015     1.395518    -0.676463     -0.001682    -0.000924    -0.000854
H     -1.444990    -1.169806     0.905651     -0.000451    -0.001410    -0.003175
H     -0.322342    -0.031072     1.573513     -0.003000    -0.002688     0.001431
H      0.751801    -1.788345     0.184042      0.000479     0.006562    -0.002349
H     -0.192614    -1.308200    -1.211653     -0.002734    -0.002300     0.000364
H      2.073867    -0.519745    -1.412545     -0.000731    -0.001201    -0.000703
H      1.021141     0.871072    -1.256422      0.000845    -0.004613     0.001031
H      1.778141     0.358431     1.174238     -0.001948    -0.002666     0.010310
15
轮次1  Outer Iteration 12, Energy=-232.1609092120, |grad|=0.026294
C     -1.625507     0.787972     0.048702     -0.000446     0.000418    -0.000042
C     -0.766770    -0.334323     0.646043      0.000711     0.002394     0.001181
C      0.285806    -0.925961    -0.303922      0.001553    -0.000758    -0.001804
C      1.419299     0.005437    -0.717411     -0.003029    -0.001100     0.001092
O      2.241083     0.419360     0.346108     -0.006798     0.005081     0.014320
H     -2.472696     0.380283    -0.509657     -0.002490    -0.000209     0.001638
H     -2.027844     1.435684     0.829987      0.002504     0.001816    -0.000614
H     -1.058060     1.423397    -0.632971     -0.000506    -0.001365    -0.001314
H     -1.421962    -1.152813     0.955145      0.000573    -0.001008    -0.003209
H     -0.293054     0.009876     1.572247     -0.002415    -0.002333     0.002151
H      0.728798    -1.808416     0.168353      0.000147     0.000749     0.000378
H     -0.214416    -1.276768    -1.212437     -0.000549    -0.000035     0.000780
H      2.063462    -0.524876    -1.421483      0.000754    -0.001823     0.000869
H      1.029853     0.885419    -1.238589      0.000780     0.000768     0.000036
H      1.765020     0.370218     1.150514      0.009214    -0.002595    -0.015462
15
轮次1  Outer Iteration 13, Energy=-232.1619309440, |grad|=0.015687
C     -1.624779     0.784708     0.049250      0.000160    -0.000005    -0.000462
C     -0.758814    -0.326030     0.652546      0.000497     0.001969     0.000882
C      0.280567    -0.927474    -0.304889      0.002467     0.000270     0.001590
C      1.419413    -0.003654    -0.721279     -0.001689    -0.000089    -0.001050
O      2.247238     0.381946     0.345176     -0.006204     0.004541     0.005514
H     -2.430953     0.365099    -0.558185     -0.001766    -0.000295     0.001805
H     -2.083670     1.394711     0.830675      0.001930     0.002135     0.000134
H     -1.048472     1.457625    -0.588133     -0.000409    -0.001133    -0.001633
H     -1.409125    -1.139136     0.987097      0.000203    -0.001513    -0.002428
H     -0.272213     0.038055     1.564355     -0.002163    -0.001523     0.001424
H      0.717997    -1.817723     0.159442      0.000190    -0.000800     0.000786
H     -0.229733    -1.266393    -1.212963     -0.000222     0.000611    -0.000104
H      2.056563    -0.531164    -1.432403      0.000352    -0.000949     0.001093
H      1.039330     0.886604    -1.232377      0.001883     0.000862    -0.000134
H      1.749663     0.397317     1.142318      0.004771    -0.004080    -0.007416
15
轮次1  Outer Iteration 14, Energy=-232.1628768593, |grad|=0.011177
C     -1.620962     0.782060     0.049548      0.000286    -0.000029    -0.000990
C     -0.755395    -0.324026     0.659266      0.001763     0.000406     0.002365
C      0.272834    -0.930148    -0.304614     -0.000002     0.003568    -0.000408
C      1.417266    -0.013026    -0.721011      0.000710    -0.000315     0.000364
O      2.260784     0.351279     0.339613      0.000063     0.003854    -0.004324
H     -2.385348     0.364648    -0.612266     -0.002403     0.000191     0.000748
H     -2.133613     1.349187     0.829160      0.002055     0.000724     0.000279
H     -1.031145     1.490098    -0.535794      0.000170    -0.001349    -0.002045
H     -1.407489    -1.129681     1.007154     -0.000035    -0.000644    -0.002029
H     -0.259917     0.048900     1.563367     -0.001509    -0.001148     0.001719
H      0.705787    -1.826693     0.153436      0.000234    -0.001861     0.001003
H     -0.243140    -1.262380    -1.211812      0.000228     0.000146     0.000037
H      2.042475    -0.540628    -1.441766     -0.000512    -0.001130     0.000843
H      1.036021     0.882301    -1.225636      0.000128     0.001064    -0.001526
H      1.754854     0.452599     1.131984     -0.001177    -0.003475     0.003964
15
轮次1  Inner Iteration 1, |pred_grad|=0.010939
C     -1.620962     0.782060     0.049548      0.000283    -0.000036    -0.000992
C     -0.755395    -0.324026     0.659266      0.001760     0.000420     0.002597
C      0.272834    -0.930148    -0.304614      0.000010     0.003383    -0.000152
C      1.417266    -0.013026    -0.721011      0.000701    -0.000309     0.000299
O      2.260784     0.351279     0.339613     -0.000268     0.003921    -0.004126
H     -2.385348     0.364648    -0.612266     -0.002405     0.000190     0.000823
H     -2.133613     1.349187     0.829160      0.002049     0.000727     0.000340
H     -1.031145     1.490098    -0.535794      0.000166    -0.001346    -0.002038
H     -1.407489    -1.129681     1.007154     -0.000036    -0.000647    -0.002122
H     -0.259917     0.048900     1.563367     -0.001510    -0.001142     0.001640
H      0.705787    -1.826693     0.153436      0.000291    -0.001949     0.000850
H     -0.243140    -1.262380    -1.211812      0.000221     0.000149    -0.000001
H      2.042475    -0.540628    -1.441766     -0.000511    -0.001125     0.000844
H      1.036021     0.882301    -1.225636      0.000128     0.001076    -0.001405
H      1.754854     0.452599     1.131984     -0.001062    -0.003412     0.003549
15
轮次1  Inner Iteration 2, |pred_grad|=0.010944
C     -1.620979     0.782062     0.049607      0.000283    -0.000049    -0.000997
C     -0.755500    -0.324051     0.659111      0.001756     0.000429     0.002603
C      0.272834    -0.930350    -0.304605      0.000021     0.003377    -0.000159
C      1.417224    -0.013007    -0.721028      0.000696    -0.000300     0.000301
O      2.260800     0.351045     0.339859     -0.000263     0.003920    -0.004136
H     -2.385205     0.364637    -0.612315     -0.002406     0.000193     0.000822
H     -2.133735     1.349144     0.829140      0.002047     0.000727     0.000340
H     -1.031155     1.490178    -0.535672      0.000167    -0.001344    -0.002040
H     -1.407486    -1.129642     1.007280     -0.000037    -0.000648    -0.002122
H     -0.259827     0.048968     1.563269     -0.001508    -0.001140     0.001638
H      0.705770    -1.826576     0.153386      0.000290    -0.001951     0.000849
H     -0.243154    -1.262389    -1.211812      0.000218     0.000141    -0.000002
H      2.042506    -0.540561    -1.441817     -0.000512    -0.001124     0.000843
H      1.036013     0.882237    -1.225552      0.000123     0.001076    -0.001406
H      1.754917     0.452803     1.131772     -0.001069    -0.003409     0.003558
15
轮次1  Inner Iteration 3, |pred_grad|=0.010949
C     -1.620996     0.782065     0.049666      0.000284    -0.000063    -0.001001
C     -0.755605    -0.324077     0.658956      0.001752     0.000437     0.002609
C      0.272832    -0.930551    -0.304596      0.000032     0.003372    -0.000166
C      1.417183    -0.012989    -0.721046      0.000691    -0.000291     0.000303
O      2.260816     0.350810     0.340106     -0.000259     0.003919    -0.004147
H     -2.385061     0.364625    -0.612364     -0.002408     0.000195     0.000821
H     -2.133857     1.349100     0.829120      0.002044     0.000727     0.000341
H     -1.031165     1.490258    -0.535550      0.000168    -0.001342    -0.002042
H     -1.407484    -1.129603     1.007407     -0.000039    -0.000649    -0.002121
H     -0.259737     0.049036     1.563171     -0.001506    -0.001137     0.001636
H      0.705753    -1.826460     0.153335      0.000290    -0.001952     0.000847
H     -0.243167    -1.262397    -1.211811      0.000215     0.000133    -0.000004
H      2.042537    -0.540494    -1.441867     -0.000513    -0.001123     0.000843
H      1.036006     0.882173    -1.225468      0.000117     0.001077    -0.001407
H      1.754981     0.453007     1.131559     -0.001076    -0.003407     0.003567
15
轮次1  Inner Iteration 4, |pred_grad|=0.010954
C     -1.621013     0.782069     0.049726      0.000285    -0.000076    -0.001006
C     -0.755709    -0.324103     0.658800      0.001749     0.000446     0.002615
C      0.272831    -0.930753    -0.304586      0.000043     0.003366    -0.000173
C      1.417141    -0.012972    -0.721064      0.000687    -0.000283     0.000305
O      2.260831     0.350576     0.340354     -0.000255     0.003919    -0.004157
H     -2.384917     0.364614    -0.612413     -0.002409     0.000197     0.000820
H     -2.133979     1.349057     0.829099      0.002042     0.000726     0.000342
H     -1.031175     1.490338    -0.535428      0.000169    -0.001340    -0.002045
H     -1.407482    -1.129565     1.007534     -0.000040    -0.000650    -0.002120
H     -0.259647     0.049104     1.563073     -0.001504    -0.001134     0.001634
H      0.705735    -1.826343     0.153284      0.000290    -0.001954     0.000846
H     -0.243179    -1.262405    -1.211811      0.000211     0.000125    -0.000006
H      2.042567    -0.540427    -1.441917     -0.000514    -0.001123     0.000842
H      1.035999     0.882108    -1.225384      0.000111     0.001077    -0.001408
H      1.755046     0.453210     1.131346     -0.001082    -0.003405     0.003575
15
轮次1  Inner Iteration 5, |pred_grad|=0.010959
C     -1.621030     0.782073     0.049786      0.000286    -0.000089    -0.001010
C     -0.755814    -0.324130     0.658643      0.001745     0.000454     0.002621
C      0.272828    -0.930954    -0.304575      0.000054     0.003361    -0.000181
C      1.417100    -0.012955    -0.721083      0.000682    -0.000274     0.000308
O      2.260846     0.350342     0.340603     -0.000251     0.003918    -0.004167
H     -2.384773     0.364602    -0.612462     -0.002411     0.000199     0.000819
H     -2.134102     1.349013     0.829079      0.002040     0.000726     0.000342
H     -1.031185     1.490419    -0.535306      0.000169    -0.001339    -0.002047
H     -1.407479    -1.129526     1.007661     -0.000041    -0.000650    -0.002120
H     -0.259557     0.049171     1.562976     -0.001502    -0.001131     0.001632
H      0.705718    -1.826226     0.153234      0.000289    -0.001956     0.000844
H     -0.243192    -1.262413    -1.211811      0.000208     0.000117    -0.000007
H      2.042598    -0.540360    -1.441968     -0.000515    -0.001122     0.000841
H      1.035992     0.882044    -1.225300      0.000106     0.001078    -0.001409
H      1.755110     0.453414     1.131132     -0.001089    -0.003402     0.003583
15
轮次2  Outer Iteration 0, Energy=-232.1629055660, |grad|=0.008676
C     -1.621047     0.782079     0.049847      0.000208    -0.000156    -0.000253
C     -0.755918    -0.324157     0.658487      0.000447     0.000322     0.000599
C      0.272825    -0.931155    -0.304564      0.000647     0.000983     0.000592
C      1.417059    -0.012939    -0.721101     -0.000063     0.000916    -0.000876
O      2.260861     0.350108     0.340852     -0.001444     0.004363     0.000118
H     -2.384629     0.364590    -0.612511     -0.002090     0.000157     0.000933
H     -2.134224     1.348970     0.829058      0.002084     0.000747     0.000049
H     -1.031196     1.490499    -0.535184      0.000203    -0.001277    -0.002116
H     -1.407477    -1.129487     1.007787      0.000167    -0.000548    -0.001919
H     -0.259467     0.049239     1.562878     -0.001051    -0.000784     0.002479
H      0.705701    -1.826109     0.153183     -0.000337    -0.000396     0.000278
H     -0.243205    -1.262420    -1.211810      0.000272     0.000492     0.000303
H      2.042629    -0.540292    -1.442018     -0.000399    -0.001285     0.000613
H      1.035986     0.881979    -1.225216      0.000334     0.000377    -0.001390
H      1.755175     0.453617     1.130918      0.001021    -0.003910     0.000592
15
轮次2  Outer Iteration 1, Energy=-232.1637041199, |grad|=0.011573
C     -1.634729     0.788026     0.062435     -0.001204     0.002110     0.001961
C     -0.759193    -0.319437     0.653887      0.000230    -0.000257    -0.001960
C      0.268941    -0.932640    -0.307208      0.000109     0.001735     0.000129
C      1.431216    -0.036619    -0.721620      0.001076    -0.003908     0.001511
O      2.283804     0.320231     0.334834      0.000253     0.006980    -0.001877
H     -2.352579     0.372988    -0.649268     -0.000505    -0.000601     0.002032
H     -2.202218     1.301233     0.842040      0.000622     0.002093    -0.000455
H     -1.049109     1.543946    -0.463581     -0.001229    -0.001288    -0.000860
H     -1.407700    -1.126720     1.005404      0.000228    -0.000915    -0.001752
H     -0.260029     0.054156     1.554976     -0.002211    -0.000461     0.000233
H      0.693680    -1.829865     0.152913      0.001082     0.000284    -0.000788
H     -0.248270    -1.263625    -1.214578     -0.000689    -0.000448     0.000391
H      2.049081    -0.574783    -1.441211     -0.000257    -0.000896    -0.000309
H      1.068017     0.863619    -1.227486      0.002004    -0.000778     0.000744
H      1.772162     0.534012     1.099068      0.000490    -0.003651     0.001001
15
轮次2  Outer Iteration 2, Energy=-232.1644947247, |grad|=0.007953
C     -1.615268     0.787111     0.062590      0.000603     0.000654    -0.001319
C     -0.754760    -0.325095     0.663022      0.001197     0.000309     0.002014
C      0.260271    -0.943608    -0.306381      0.000455     0.002244     0.000098
C      1.416511    -0.042473    -0.722743     -0.000739    -0.000637     0.000276
O      2.269390     0.297565     0.337838     -0.000069     0.003613    -0.002398
H     -2.290674     0.385778    -0.696646     -0.000115    -0.000418     0.001750
H     -2.226919     1.264969     0.831562      0.000813     0.001082     0.000477
H     -1.015168     1.568191    -0.408559     -0.000540    -0.000580    -0.001055
H     -1.409534    -1.124906     1.020922      0.000303    -0.001427    -0.001146
H     -0.245749     0.048591     1.557978     -0.001850    -0.000155    -0.000323
H      0.684466    -1.842089     0.151363     -0.000398    -0.000161     0.000141
H     -0.261665    -1.270964    -1.212840      0.000336    -0.000449    -0.000677
H      2.034987    -0.574505    -1.445772     -0.000400    -0.001036     0.000132
H      1.050428     0.861254    -1.221404      0.001276    -0.000202     0.000229
H      1.756757     0.604704     1.069675     -0.000872    -0.002836     0.001802
15
轮次2  Outer Iteration 3, Energy=-232.1650403682, |grad|=0.006396
C     -1.612404     0.788225     0.069093     -0.001359    -0.001107     0.000032
C     -0.762451    -0.333615     0.664359     -0.000318     0.000637    -0.001140