15
Iteration 0, Energy=-231.7140836940, |grad|=2.067251
C     -1.583414     0.982860     0.178165      0.039324     0.396423     0.402102
C     -0.697102    -0.483512     0.468817      0.765840    -0.576800    -0.807470
C      0.120018    -0.744683    -0.258376     -1.070942     0.410189     0.530715
C      1.449642    -0.105250    -0.526391      0.253582    -0.096274     0.440206
O      2.202756     0.469943     0.253242     -0.048304    -0.072486    -0.443016
H     -2.635162     0.411659    -0.332236     -0.098671    -0.082914    -0.069945
H     -1.811917     1.413406     0.969211      0.065231    -0.185503    -0.274334
H     -1.172048     1.309086    -0.746844     -0.017494    -0.074700    -0.004759
H     -1.476196    -1.049777     0.687492      0.107212     0.126850    -0.051773
H     -0.235151    -0.002368     1.372800      0.021351     0.050382    -0.018063
H      0.894460    -1.794778     0.130112      0.091300    -0.042701    -0.024816
H      0.090930    -1.270291    -1.048402      0.083701     0.117775     0.261282
H      1.972910    -0.614938    -1.326546     -0.004120     0.037721    -0.011212
H      0.962749     0.802848    -1.263066     -0.041779     0.040569    -0.027026
H      1.570538     0.370283     1.122651     -0.146230    -0.048531     0.098108
15
Iteration 1, Energy=-231.8807906041, |grad|=1.225849
C     -1.629589     0.990052     0.189600      0.053974     0.353281     0.304043
C     -0.754878    -0.471585     0.509345      0.292105    -0.402253    -0.343718
C      0.163742    -0.771922    -0.300898     -0.569693     0.286713     0.116295
C      1.494261    -0.115018    -0.558239      0.198435    -0.149990     0.347848
O      2.247029     0.483124     0.272411      0.017439    -0.021421    -0.339226
H     -2.672226     0.436535    -0.317721     -0.094258    -0.079475    -0.067619
H     -1.871409     1.449636     1.004152      0.039500    -0.137383    -0.179132
H     -1.210996     1.316169    -0.735476     -0.018062    -0.072951    -0.006387
H     -1.548042    -1.049327     0.732368      0.070581     0.110423    -0.036560
H     -0.299623     0.011479     1.413503      0.011881     0.058134    -0.006851
H      0.919540    -1.816924     0.106629      0.100980    -0.054795    -0.023003
H      0.132188    -1.320191    -1.113449      0.084273     0.072696     0.189777
H      2.035593    -0.623371    -1.348900     -0.006807     0.034671    -0.018342
H      1.020064     0.785260    -1.300965     -0.047499     0.042709    -0.036261
H      1.627358     0.390573     1.128269     -0.132849    -0.040359     0.099138
15
Iteration 2, Energy=-231.9723443451, |grad|=0.928433
C     -1.617625     0.970952     0.173303      0.078236     0.282767     0.190351
C     -0.770263    -0.476667     0.533932      0.211661    -0.327742    -0.221316
C      0.173606    -0.802997    -0.326586     -0.438875     0.287644     0.068976
C      1.491302    -0.098369    -0.583831      0.148122    -0.181192     0.250136
O      2.229888     0.522846     0.324083      0.046840     0.022874    -0.203454
H     -2.651066     0.468985    -0.306325     -0.083998    -0.065977    -0.059842
H     -1.860540     1.481961     1.017488      0.009240    -0.083895    -0.078531
H     -1.201506     1.302595    -0.758536     -0.019501    -0.065381    -0.013011
H     -1.577257    -1.080446     0.778534      0.025629     0.074945    -0.021766
H     -0.302389    -0.004204     1.427186      0.006825     0.055369    -0.007867
H      0.883709    -1.834360     0.101170      0.094109    -0.065042    -0.013498
H      0.109434    -1.383185    -1.171372      0.075467     0.016518     0.106917
H      2.059316    -0.593607    -1.365629     -0.012774     0.031792    -0.026290
H      1.035156     0.789592    -1.316082     -0.048045     0.044877    -0.045482
H      1.651248     0.431394     1.153295     -0.092935    -0.027558     0.074678
15
Iteration 3, Energy=-232.0349687203, |grad|=0.702028
C     -1.614763     0.948885     0.166046      0.072173     0.236467     0.138595
C     -0.788749    -0.469930     0.564568      0.117618    -0.263018    -0.096930
C      0.195929    -0.829419    -0.352228     -0.307466     0.253801    -0.015756
C      1.495553    -0.080814    -0.612159      0.132788    -0.170365     0.203878
O      2.197216     0.539655     0.352683      0.018651     0.026539    -0.120737
H     -2.624626     0.495852    -0.287064     -0.063124    -0.048982    -0.047853
H     -1.856701     1.499805     1.012267     -0.001352    -0.063817    -0.043837
H     -1.197424     1.295411    -0.766430     -0.020617    -0.056781    -0.018121
H     -1.594601    -1.099303     0.822576      0.004486     0.057151    -0.013425
H     -0.313039    -0.011798     1.450761      0.000149     0.051045    -0.009972
H      0.852511    -1.831331     0.094038      0.082411    -0.067831    -0.008107
H      0.094318    -1.428602    -1.208177      0.069026    -0.007828     0.073463
H      2.095203    -0.565209    -1.376945     -0.015441     0.032659    -0.028274
H      1.070917     0.789432    -1.324830     -0.038077     0.038506    -0.041796
H      1.641268     0.441857     1.145525     -0.051228    -0.017546     0.028874
15
Iteration 4, Energy=-232.0773523437, |grad|=0.545711
C     -1.600764     0.920231     0.152410      0.060031     0.181357     0.087095
C     -0.792290    -0.460706     0.583192      0.080732    -0.215618    -0.035909
C      0.210382    -0.852305    -0.371407     -0.230777     0.227408    -0.042485
C      1.484794    -0.058652    -0.640163      0.108296    -0.150236     0.145684
O      2.161413     0.555429     0.383618      0.010415     0.032148    -0.056463
H     -2.589145     0.511022    -0.273804     -0.036524    -0.031025    -0.033340
H     -1.838254     1.514689     0.999308     -0.009742    -0.042381    -0.013491
H     -1.180676     1.285427    -0.776674     -0.020915    -0.047947    -0.020864
H     -1.588105    -1.119813     0.854223     -0.008356     0.041548    -0.008340
H     -0.302264    -0.022182     1.464255     -0.002660     0.045195    -0.011436
H      0.810182    -1.815106     0.090345      0.062850    -0.060445    -0.005636
H      0.059776    -1.467218    -1.234548      0.059432    -0.027483     0.047592
H      2.111366    -0.540095    -1.387443     -0.017529     0.029796    -0.031183
H      1.085375     0.792219    -1.330185     -0.027901     0.025987    -0.035534
H      1.621222     0.451550     1.167501     -0.027351    -0.008306     0.014310
15
Iteration 5, Energy=-232.1067688633, |grad|=0.413365
C     -1.594520     0.892449     0.142526      0.043691     0.131792     0.055923
C     -0.793806    -0.443864     0.596283      0.054616    -0.169112     0.001141
C      0.227543    -0.868906    -0.380392     -0.163980     0.187621    -0.051324
C      1.476050    -0.037564    -0.664120      0.087817    -0.114630     0.108958
O      2.134968     0.556179     0.395228     -0.003517     0.026465    -0.026516
H     -2.567234     0.514897    -0.267217     -0.013802    -0.016477    -0.020340
H     -1.830143     1.522142     0.981583     -0.012544    -0.028605    -0.000172
H     -1.166416     1.286672    -0.774894     -0.019209    -0.038441    -0.021714
H     -1.571336    -1.137978     0.872050     -0.014915     0.028938    -0.005664
H     -0.293447    -0.030186     1.478639     -0.003568     0.038200    -0.011995
H      0.775130    -1.788560     0.095394      0.038927    -0.042284    -0.008628
H      0.023644    -1.489926    -1.245232      0.049010    -0.038388     0.032102
H      2.127020    -0.525207    -1.387828     -0.016199     0.026502    -0.029431
H      1.104207     0.800685    -1.330740     -0.014399     0.011823    -0.022890
H      1.601350     0.443657     1.169349     -0.011928    -0.003407     0.000549
15
Iteration 6, Energy=-232.1272487036, |grad|=0.301256
C     -1.592673     0.868041     0.130578      0.034593     0.091193     0.038821
C     -0.793157    -0.424042     0.602448      0.033893    -0.125632     0.016732
C      0.243239    -0.881203    -0.380125     -0.111071     0.143538    -0.048221
C      1.463456    -0.017649    -0.685222      0.066056    -0.080682     0.074382
O      2.124129     0.548478     0.400756     -0.004074     0.021382    -0.012540
H     -2.559724     0.510550    -0.273710     -0.004266    -0.008346    -0.012399
H     -1.827760     1.525916     0.957057     -0.011864    -0.019463     0.003727
H     -1.149788     1.295998    -0.766772     -0.015909    -0.029055    -0.019934
H     -1.543436    -1.155259     0.876497     -0.014131     0.019814    -0.005298
H     -0.285039    -0.040215     1.492011     -0.001948     0.029960    -0.010436
H      0.754010    -1.766973     0.109853      0.018284    -0.023194    -0.012200
H     -0.016892    -1.493366    -1.243964      0.038389    -0.040702     0.024025
H      2.130129    -0.521101    -1.386067     -0.013400     0.019613    -0.025892
H      1.104977     0.815706    -1.333538     -0.006848     0.002608    -0.015018
H      1.601539     0.429612     1.180825     -0.007704    -0.001034     0.004251
15
Iteration 7, Energy=-232.1415731390, |grad|=0.211194
C     -1.597661     0.848855     0.116937      0.027846     0.058094     0.027599
C     -0.794482    -0.404691     0.606103      0.017592    -0.084407     0.018960
C      0.258131    -0.891145    -0.368560     -0.072632     0.107326    -0.040070
C      1.450332    -0.000689    -0.699582      0.046162    -0.051579     0.054431
O      2.129342     0.535468     0.392595     -0.010577     0.012938    -0.000849
H     -2.559502     0.502381    -0.292171     -0.001493    -0.003945    -0.007280
H     -1.836845     1.528163     0.930894     -0.009732    -0.011713     0.004271
H     -1.132585     1.312847    -0.752081     -0.011848    -0.020395    -0.016250
H     -1.516021    -1.172134     0.872934     -0.010979     0.011429    -0.005166
H     -0.287290    -0.051898     1.508496     -0.000038     0.020819    -0.008203
H      0.750446    -1.758479     0.136405      0.008423    -0.014556    -0.010080
H     -0.056533    -1.478265    -1.235995      0.027183    -0.037647     0.016826
H      2.127040    -0.520568    -1.379312     -0.009154     0.013106    -0.018104
H      1.097486     0.836658    -1.329142     -0.001819     0.000220    -0.009208
H      1.621153     0.407987     1.173107      0.001066     0.000312    -0.006879
15
Iteration 8, Energy=-232.1511662198, |grad|=0.133812
C     -1.596809     0.832331     0.096943      0.019367     0.033078     0.018261
C     -0.791087    -0.388926     0.611931      0.005601    -0.049467     0.015965
C      0.272348    -0.904218    -0.351438     -0.042800     0.073194    -0.029025
C      1.430510     0.015007    -0.713768      0.028949    -0.027665     0.029108
O      2.133583     0.521545     0.385005      0.000397     0.008987    -0.012054
H     -2.551360     0.491144    -0.321465     -0.000142    -0.001203    -0.003146
H     -1.839721     1.530291     0.896162     -0.005930    -0.006793     0.002198
H     -1.103813     1.325660    -0.741026     -0.007401    -0.012620    -0.011872
H     -1.488188    -1.182957     0.875098     -0.006081     0.005376    -0.004792
H     -0.291649    -0.061098     1.528602      0.001322     0.012041    -0.004927
H      0.758663    -1.758579     0.160382      0.003482    -0.008908    -0.006562
H     -0.095586    -1.449219    -1.225789      0.017984    -0.029154     0.011496
H      2.111109    -0.511897    -1.385342     -0.006282     0.006451    -0.011565
H      1.062316     0.855339    -1.320422     -0.001093    -0.001211    -0.006752
H      1.642696     0.380067     1.185754     -0.007375    -0.002106     0.013666
15
Iteration 9, Energy=-232.1565728790, |grad|=0.075168
C     -1.606955     0.817803     0.078799      0.010554     0.014319     0.010491
C     -0.795937    -0.377366     0.616544     -0.002126    -0.020820     0.007540
C      0.284816    -0.919825    -0.325566     -0.018648     0.034595    -0.017038
C      1.419349     0.020274    -0.713583      0.009745    -0.012834     0.020374
O      2.170401     0.514240     0.362189     -0.013203     0.002763     0.021320
H     -2.547761     0.473547    -0.362124     -0.000856    -0.000576    -0.000349
H     -1.865639     1.523376     0.869780     -0.002294    -0.001262     0.001220
H     -1.083056     1.345603    -0.718349     -0.003578    -0.006891    -0.006219
H     -1.479920    -1.188919     0.868675     -0.002650     0.001817    -0.004348
H     -0.319708    -0.070995     1.553185      0.000113     0.004483    -0.002216
H      0.763959    -1.767655     0.184813      0.001664    -0.001793    -0.004645
H     -0.132553    -1.403021    -1.215023      0.007256    -0.018243     0.005882
H      2.098053    -0.509749    -1.384864     -0.001408     0.002542    -0.003382
H      1.037032     0.867830    -1.291979      0.001415    -0.000644    -0.001327
H      1.710930     0.369348     1.158131      0.014017     0.002543    -0.027303
15
Iteration 10, Energy=-232.1587137210, |grad|=0.037495
C     -1.592838     0.803975     0.053534      0.002712     0.004447     0.000479
C     -0.772920    -0.364035     0.632412      0.001821    -0.004876     0.004877
C      0.299946    -0.934895    -0.303430     -0.000325     0.012073     0.002648
C      1.398456     0.029475    -0.729358      0.003645     0.001445    -0.005855
O      2.155610     0.487567     0.359181      0.001224     0.000906    -0.019891
H     -2.517621     0.448229    -0.409289     -0.002225     0.000835     0.000648
H     -1.872734     1.514072     0.832911      0.001969    -0.000059    -0.000524
H     -1.047932     1.356677    -0.712564     -0.001347    -0.001929    -0.003077
H     -1.450516    -1.178976     0.897456     -0.000583    -0.000361    -0.003461
H     -0.308609    -0.058753     1.576388      0.000099    -0.001755     0.001057
H      0.772994    -1.789918     0.202376      0.000609    -0.004892     0.003892
H     -0.164356    -1.347507    -1.204433      0.003868    -0.002707     0.000847
H      2.073223    -0.484546    -1.416335     -0.001747     0.000013    -0.001224
H      0.989363     0.886588    -1.275004      0.000582     0.002410    -0.002111
H      1.690945     0.326538     1.176784     -0.010301    -0.005551     0.021695
15
Iteration 11, Energy=-232.1596504728, |grad|=0.022110
C     -1.624653     0.796308     0.052759     -0.002006    -0.002888    -0.000599
C     -0.779852    -0.346397     0.629997     -0.002020     0.004969    -0.001129
C      0.293674    -0.928123    -0.305764      0.002942    -0.003685    -0.002674
C      1.421028     0.011694    -0.716994     -0.000781    -0.000342     0.000095
O      2.228668     0.462342     0.346224      0.007090     0.007332    -0.005905
H     -2.514787     0.411085    -0.443051      0.002093     0.001169     0.004575
H     -1.958054     1.479727     0.837097      0.001903     0.002685    -0.000418
H     -1.078015     1.395518    -0.676463     -0.001682    -0.000924    -0.000854
H     -1.444990    -1.169806     0.905651     -0.000451    -0.001410    -0.003175
H     -0.322342    -0.031072     1.573513     -0.003000    -0.002688     0.001431
H      0.751801    -1.788345     0.184042      0.000479     0.006562    -0.002349
H     -0.192614    -1.308200    -1.211653     -0.002734    -0.002300     0.000364
H      2.073867    -0.519745    -1.412545     -0.000731    -0.001201    -0.000703
H      1.021141     0.871072    -1.256422      0.000845    -0.004613     0.001031
H      1.778141     0.358431     1.174238     -0.001948    -0.002666     0.010310
15
Iteration 12, Energy=-232.1609092120, |grad|=0.026294
C     -1.625507     0.787972     0.048702     -0.000446     0.000418    -0.000042
C     -0.766770    -0.334323     0.646043      0.000711     0.002394     0.001181
C      0.285806    -0.925961    -0.303922      0.001553    -0.000758    -0.001804
C      1.419299     0.005437    -0.717411     -0.003029    -0.001100     0.001092
O      2.241083     0.419360     0.346108     -0.006798     0.005081     0.014320
H     -2.472696     0.380283    -0.509657     -0.002490    -0.000209     0.001638
H     -2.027844     1.435684     0.829987      0.002504     0.001816    -0.000614
H     -1.058060     1.423397    -0.632971     -0.000506    -0.001365    -0.001314
H     -1.421962    -1.152813     0.955145      0.000573    -0.001008    -0.003209
H     -0.293054     0.009876     1.572247     -0.002415    -0.002333     0.002151
H      0.728798    -1.808416     0.168353      0.000147     0.000749     0.000378
H     -0.214416    -1.276768    -1.212437     -0.000549    -0.000035     0.000780
H      2.063462    -0.524876    -1.421483      0.000754    -0.001823     0.000869
H      1.029853     0.885419    -1.238589      0.000780     0.000768     0.000036
H      1.765020     0.370218     1.150514      0.009214    -0.002595    -0.015462
15
Iteration 13, Energy=-232.1619309440, |grad|=0.015687
C     -1.624779     0.784708     0.049250      0.000160    -0.000005    -0.000462
C     -0.758814    -0.326030     0.652546      0.000497     0.001969     0.000882
C      0.280567    -0.927474    -0.304889      0.002467     0.000270     0.001590
C      1.419413    -0.003654    -0.721279     -0.001689    -0.000089    -0.001050
O      2.247238     0.381946     0.345176     -0.006204     0.004541     0.005514
H     -2.430953     0.365099    -0.558185     -0.001766    -0.000295     0.001805
H     -2.083670     1.394711     0.830675      0.001930     0.002135     0.000134
H     -1.048472     1.457625    -0.588133     -0.000409    -0.001133    -0.001633
H     -1.409125    -1.139136     0.987097      0.000203    -0.001513    -0.002428
H     -0.272213     0.038055     1.564355     -0.002163    -0.001523     0.001424
H      0.717997    -1.817723     0.159442      0.000190    -0.000800     0.000786
H     -0.229733    -1.266393    -1.212963     -0.000222     0.000611    -0.000104
H      2.056563    -0.531164    -1.432403      0.000352    -0.000949     0.001093
H      1.039330     0.886604    -1.232377      0.001883     0.000862    -0.000134
H      1.749663     0.397317     1.142318      0.004771    -0.004080    -0.007416
15
Iteration 14, Energy=-232.1628768593, |grad|=0.011177
C     -1.620962     0.782060     0.049548      0.000286    -0.000029    -0.000990
C     -0.755395    -0.324026     0.659266      0.001763     0.000406     0.002365
C      0.272834    -0.930148    -0.304614     -0.000002     0.003568    -0.000408
C      1.417266    -0.013026    -0.721011      0.000710    -0.000315     0.000364
O      2.260784     0.351279     0.339613      0.000063     0.003854    -0.004324
H     -2.385348     0.364648    -0.612266     -0.002403     0.000191     0.000748
H     -2.133613     1.349187     0.829160      0.002055     0.000724     0.000279
H     -1.031145     1.490098    -0.535794      0.000170    -0.001349    -0.002045
H     -1.407489    -1.129681     1.007154     -0.000035    -0.000644    -0.002029
H     -0.259917     0.048900     1.563367     -0.001509    -0.001148     0.001719
H      0.705787    -1.826693     0.153436      0.000234    -0.001861     0.001003
H     -0.243140    -1.262380    -1.211812      0.000228     0.000146     0.000037
H      2.042475    -0.540628    -1.441766     -0.000512    -0.001130     0.000843
H      1.036021     0.882301    -1.225636      0.000128     0.001064    -0.001526
H      1.754854     0.452599     1.131984     -0.001177    -0.003475     0.003964
15
Iteration 1, Energy=-232.1636690325, |grad|=0.013792
C     -1.635503     0.788678     0.062886     -0.001487     0.002449     0.002561
C     -0.759303    -0.319171     0.652744     -0.000128    -0.000411    -0.003107
C      0.269720    -0.932962    -0.307097      0.000626     0.000673     0.000741
C      1.431460    -0.036202    -0.721596      0.000708    -0.003256     0.001086
O      2.283300     0.320919     0.336011     -0.002066     0.007985     0.002886
H     -2.353961     0.372846    -0.647516     -0.000269    -0.000744     0.002243
H     -2.202154     1.302488     0.842674      0.000508     0.002267    -0.000597
H     -1.050566     1.544272    -0.464379     -0.001225    -0.001288    -0.000845
H     -1.407387    -1.126600     1.004505      0.000333    -0.000893    -0.001812
H     -0.260160     0.054925     1.553884     -0.002124    -0.000240     0.000320
H      0.694666    -1.829518     0.153121      0.000988     0.000633    -0.001171
H     -0.247154    -1.264377    -1.214321     -0.000671    -0.000331     0.000633
H      2.049665    -0.574629    -1.440886     -0.000327    -0.001021    -0.000514
H      1.067792     0.863018    -1.228651      0.001919    -0.001087     0.000487
H      1.772596     0.530804     1.099250      0.003213    -0.004735    -0.002910
15
Iteration 2, Energy=-232.1644726680, |grad|=0.009639
C     -1.615147     0.786961     0.062474      0.000451     0.000500    -0.000828
C     -0.755280    -0.325322     0.662571     -0.000144    -0.000057     0.000451
C      0.260387    -0.944175    -0.306175      0.000991    -0.000298     0.001010
C      1.416101    -0.041615    -0.723044     -0.001475     0.000498    -0.001007
O      2.268894     0.298856     0.338746     -0.001984     0.005341     0.002415
H     -2.291082     0.385221    -0.695741      0.000182    -0.000413     0.001987
H     -2.225718     1.266221     0.831116      0.000955     0.001051     0.000243
H     -1.014845     1.567102    -0.410203     -0.000493    -0.000479    -0.001152
H     -1.409569    -1.124859     1.021519      0.000499    -0.001290    -0.001060
H     -0.245608     0.048943     1.558096     -0.001301     0.000248     0.000599
H      0.684639    -1.840835     0.151224     -0.001126     0.001522    -0.000679
H     -0.261574    -1.271064    -1.212432      0.000420    -0.000146    -0.000333
H      2.035218    -0.573271    -1.446214     -0.000255    -0.001181    -0.000225
H      1.049639     0.861164    -1.221655      0.001500    -0.000934     0.000372
H      1.756959     0.601163     1.070348      0.001780    -0.004362    -0.001795
15
Iteration 3, Energy=-232.1650204782, |grad|=0.010913
C     -1.613448     0.787764     0.068961     -0.001179    -0.001452    -0.000200
C     -0.762014    -0.332515     0.664684      0.000039     0.001145    -0.000438
C      0.254722    -0.952269    -0.302101      0.000452     0.001516    -0.000432
C      1.415365    -0.055393    -0.720400     -0.000585    -0.000726     0.001844
O      2.278263     0.281686     0.333222      0.005112     0.000188    -0.006246
H     -2.248610     0.414642    -0.739634     -0.001436     0.000344    -0.000028
H     -2.266139     1.224169     0.828409      0.000664     0.000401     0.000337
H     -1.000690     1.594870    -0.338802      0.000618    -0.001070    -0.000513
H     -1.427501    -1.125818     1.015931     -0.000415     0.000570    -0.000573
H     -0.250874     0.028347     1.564986     -0.000435    -0.000886     0.000853
H      0.677128    -1.852612     0.153982      0.000339    -0.000487    -0.000035
H     -0.270964    -1.274417    -1.207872     -0.000664     0.000325     0.000424
H      2.032562    -0.590989    -1.441044      0.000389    -0.000145     0.001177
H      1.050306     0.846894    -1.224603      0.000237     0.000117    -0.000802
H      1.784905     0.700131     1.024911     -0.003138     0.000160     0.004632
15
Iteration 4, Energy=-232.1653941950, |grad|=0.007477
C     -1.594644     0.798494     0.082914      0.000491     0.001369     0.002306
C     -0.760354    -0.343374     0.662386     -0.000438     0.000372    -0.002589
C      0.249698    -0.970859    -0.305668      0.000273    -0.000572     0.001351
C      1.408040    -0.071499    -0.722584      0.002122    -0.001306    -0.000857
O      2.241649     0.279709     0.349444     -0.003051     0.002326     0.001189
H     -2.191612     0.450929    -0.764952     -0.000133    -0.000904     0.000452
H     -2.283146     1.197687     0.831249     -0.000017     0.000816    -0.000145
H     -0.977667     1.629398    -0.267551     -0.000375     0.000033    -0.000555
H     -1.433490    -1.133343     1.007226      0.000722    -0.000805    -0.000319
H     -0.243333     0.005800     1.563559     -0.000895     0.001043     0.000344
H      0.673743    -1.868008     0.155427      0.000655    -0.000858     0.000082
H     -0.272803    -1.297193    -1.211961      0.000618     0.000300    -0.000216
H      2.037617    -0.607980    -1.432004     -0.000984    -0.000428    -0.000467
H      1.042602     0.825254    -1.236663     -0.000043     0.000901     0.000101
H      1.756711     0.799472     0.969807      0.001056    -0.002287    -0.000676
15
Iteration 5, Energy=-232.1655362315, |grad|=0.009928
C     -1.573075     0.801997     0.094849      0.001593    -0.000170    -0.002096
C     -0.770732    -0.364321     0.669972     -0.000948    -0.001706     0.001787
C      0.237818    -0.982036    -0.303762     -0.001731     0.001144    -0.003335
C      1.397002    -0.081534    -0.718764     -0.001495    -0.000068     0.003510
O      2.223770     0.300685     0.349255      0.000779     0.003891     0.001419
H     -2.121726     0.496165    -0.799720      0.000324    -0.000055     0.000585
H     -2.301474     1.165434     0.823216      0.000471    -0.000447     0.000356
H     -0.939671     1.648618    -0.181419     -0.000479     0.000244    -0.000334
H     -1.463172    -1.148184     0.990260      0.000089    -0.000490     0.000497
H     -0.252948    -0.044820     1.581003     -0.000231    -0.000041     0.000412
H      0.661106    -1.876450     0.158821     -0.001122     0.002008     0.000081
H     -0.285249    -1.311692    -1.209045     -0.000589    -0.000903    -0.000077
H      2.041204    -0.626955    -1.408428      0.000726     0.000582     0.000408
H      1.034413     0.799024    -1.259449      0.000672    -0.000633     0.000152
H      1.765746     0.918561     0.893840      0.001942    -0.003357    -0.003366
15
Iteration 6, Energy=-232.1655683290, |grad|=0.010512
C     -1.559518     0.810242     0.107082     -0.002414    -0.001373    -0.000249
C     -0.768369    -0.371420     0.667494      0.000865     0.001811    -0.000995
C      0.241607    -0.996131    -0.300547      0.001852    -0.000801     0.003082
C      1.391485    -0.090268    -0.726917     -0.000175     0.001118    -0.002030
O      2.189289     0.320819     0.352792      0.001817    -0.005174    -0.002547
H     -2.082605     0.538565    -0.814017     -0.000254     0.000707    -0.000139
H     -2.308352     1.152463     0.825115     -0.000348     0.000241    -0.000069
H     -0.914714     1.662749    -0.120649      0.000538    -0.000998     0.000591
H     -1.475122    -1.147452     0.974000     -0.000718     0.001163    -0.000135
H     -0.249168    -0.072019     1.583983      0.000996    -0.001052    -0.000193
H      0.669720    -1.889145     0.162560      0.000062    -0.000115    -0.000654
H     -0.282011    -1.328206    -1.204220      0.000119     0.000726     0.000341
H      2.052389    -0.642601    -1.395159      0.000210    -0.000041     0.000024
H      1.022599     0.773576    -1.290136      0.000115    -0.000400    -0.000151
H      1.725782     0.973318     0.859249     -0.002665     0.004189     0.003124
15
Iteration 7, Energy=-232.1656004088, |grad|=0.002356
C     -1.553682     0.811597     0.104956      0.000233     0.000371     0.000733
C     -0.769100    -0.373547     0.667569     -0.000053     0.000259    -0.000611
C      0.241334    -0.998031    -0.300488     -0.000378    -0.000660    -0.000541
C      1.388071    -0.087534    -0.725537      0.000118    -0.000598     0.000517
O      2.192028     0.327658     0.348138      0.000576     0.000101    -0.000163
H     -2.081793     0.534487    -0.811920     -0.000033    -0.000200    -0.000105
H     -2.298384     1.160331     0.823941     -0.000056     0.000087    -0.000086
H     -0.908419     1.661623    -0.132015      0.000081     0.000205    -0.000112
H     -1.474211    -1.151646     0.973052      0.000307    -0.000210    -0.000018
H     -0.255141    -0.069715     1.585585     -0.000323     0.000384    -0.000107
H      0.673055    -1.888869     0.165279      0.000562    -0.000553    -0.000041
H     -0.281022    -1.334084    -1.203668     -0.000142     0.000014    -0.000025
H      2.046118    -0.635363    -1.400019     -0.000369    -0.000206    -0.000166
H      1.011977     0.777148    -1.283665     -0.000304     0.000326     0.000091
H      1.722181     0.960436     0.869422     -0.000220     0.000680     0.000632
15
Iteration 8, Energy=-232.1655968290, |grad|=0.004541
C     -1.557371     0.810982     0.105944      0.000568     0.000137    -0.000306
C     -0.769551    -0.371758     0.668958     -0.000435    -0.001203     0.000915
C      0.241495    -0.992229    -0.301047     -0.000216     0.001689     0.000117
C      1.392114    -0.087455    -0.728560      0.000615    -0.000134    -0.000845
O      2.193991     0.324570     0.346912     -0.001694     0.001068     0.001129
H     -2.086205     0.531815    -0.809742     -0.000040    -0.000047    -0.000045
H     -2.301712     1.157666     0.826241      0.000172    -0.000185     0.000052
H     -0.915425     1.662922    -0.132454     -0.000289     0.000149    -0.000055
H     -1.473365    -1.151523     0.973527     -0.000122    -0.000061     0.000195
H     -0.255802    -0.068587     1.587483     -0.000132     0.000076     0.000124
H      0.670273    -1.882595     0.167269     -0.000380     0.000173     0.000394
H     -0.280245    -1.330148    -1.203853      0.000312    -0.000049    -0.000130
H      2.051327    -0.638826    -1.398978      0.000432     0.000309     0.000108
H      1.022143     0.777448    -1.290080      0.000093    -0.000072    -0.000009
H      1.721345     0.952208     0.869009      0.001115    -0.001850    -0.001646
15
Iteration 9, Energy=-232.1656050162, |grad|=0.000923
C     -1.554811     0.811521     0.105929     -0.000205    -0.000085    -0.000132
C     -0.768752    -0.372842     0.667973      0.000280     0.000240    -0.000040
C      0.241261    -0.996034    -0.301041      0.000081    -0.000310    -0.000061
C      1.389257    -0.087414    -0.726877     -0.000273     0.000330     0.000288