9
轮次1  Outer Iteration 0, Energy=-154.0791133506, |grad|=0.157325
C     -0.955964     0.056819     0.047139      0.052344     0.016252     0.009877
C      0.489892    -0.328419    -0.195930      0.014251     0.027987     0.000528
O      1.268139     0.332107     0.739696     -0.085885    -0.060028    -0.000872
H     -1.352851     0.724387    -0.723824     -0.002377    -0.001509     0.000819
H     -1.586672    -0.868323     0.015396     -0.008790    -0.033674    -0.008955
H     -1.077363     0.592524     1.011658     -0.005849     0.025669     0.017414
H      0.786045    -0.144784    -1.233537     -0.003865    -0.005645    -0.003381
H      0.582818    -1.430267    -0.046703     -0.009728    -0.029744    -0.002415
H      1.831611     1.053529     0.382976      0.049899     0.060692    -0.013015
9
轮次1  Outer Iteration 1, Energy=-154.0833144004, |grad|=0.098060
C     -1.007426     0.039685     0.034422     -0.012233    -0.016040     0.002443
C      0.486947    -0.293833    -0.144587     -0.005693     0.023210     0.013113
O      1.387266     0.325710     0.745482      0.050330     0.033738    -0.029822
H     -1.382166     0.712061    -0.744190     -0.005724    -0.003239    -0.003086
H     -1.643561    -0.845852    -0.005257     -0.006349     0.004766    -0.003041
H     -1.149587     0.532794     0.990765      0.004151     0.000102    -0.009400
H      0.786182    -0.082054    -1.174816      0.000432     0.000467     0.001460
H      0.633632    -1.366011    -0.006064      0.003747     0.001838    -0.000234
H      1.874367     0.965072     0.301113     -0.028662    -0.044843     0.028567
9
轮次1  Outer Iteration 2, Energy=-154.0856508374, |grad|=0.021381
C     -0.985626     0.046993     0.039375      0.001063    -0.004071     0.009143
C      0.489020    -0.321079    -0.166079      0.005128     0.006859     0.000244
O      1.327574     0.331621     0.753248     -0.008022    -0.007222     0.004754
H     -1.353475     0.727918    -0.733627     -0.002382    -0.002499    -0.001866
H     -1.623930    -0.838290     0.006903      0.000219     0.000109    -0.001927
H     -1.111950     0.543212     1.001789     -0.000441     0.005093    -0.002721
H      0.793832    -0.113308    -1.196098     -0.000966    -0.001394    -0.000735
H      0.621947    -1.396157    -0.025869     -0.000984    -0.001299    -0.003933
H      1.828262     1.006662     0.317228      0.006384     0.004425    -0.002959
9
轮次1  Outer Iteration 3, Energy=-154.0861121244, |grad|=0.013383
C     -0.982470     0.048850     0.032716     -0.000840     0.001020     0.001669
C      0.487670    -0.336356    -0.162704      0.002318    -0.003655     0.002054
O      1.321852     0.340142     0.745405     -0.001188     0.005467    -0.002375
H     -1.329232     0.758126    -0.723495     -0.001008    -0.001415    -0.002327
H     -1.634483    -0.825443    -0.006659      0.001187     0.000435     0.002853
H     -1.097516     0.512372     1.012415      0.000938     0.001698    -0.001665
H      0.801091    -0.122833    -1.188810      0.000518     0.003984     0.001249
H      0.628720    -1.407108    -0.007390      0.000552    -0.000595    -0.003581
H      1.790021     1.019823     0.295392     -0.002478    -0.006939     0.002123
9
轮次1  Outer Iteration 4, Energy=-154.0865808196, |grad|=0.010300
C     -0.982798     0.048349     0.030605     -0.001767     0.000239    -0.003156
C      0.486711    -0.338237    -0.158818     -0.001315    -0.002859     0.001878
O      1.333391     0.345929     0.735988     -0.001073     0.000382     0.002563
H     -1.316178     0.780723    -0.707861     -0.000134    -0.002124    -0.001696
H     -1.640686    -0.821532    -0.034821     -0.000616    -0.000613     0.004132
H     -1.104519     0.483494     1.023517      0.001143     0.001372    -0.000592
H      0.799341    -0.142704    -1.188922      0.000855     0.004564     0.001160
H      0.623804    -1.406254     0.016356      0.000019    -0.000592    -0.003132
H      1.786589     1.037804     0.280827      0.002888    -0.000368    -0.001157
9
轮次1  Outer Iteration 5, Energy=-154.0870707717, |grad|=0.011239
C     -0.979624     0.049664     0.031835     -0.000850     0.000042    -0.003311
C      0.487549    -0.340869    -0.157429     -0.001745    -0.001709    -0.000924
O      1.340503     0.350461     0.727125     -0.001360    -0.001093     0.005489
H     -1.303717     0.802210    -0.689313     -0.000073    -0.002907    -0.000880
H     -1.640140    -0.815863    -0.064227     -0.000776    -0.001090     0.003896
H     -1.111195     0.460823     1.034422      0.000351     0.002330    -0.000087
H      0.796624    -0.167393    -1.192700      0.000467     0.003585     0.000576
H      0.620833    -1.405553     0.037716     -0.000103    -0.000164    -0.002810
H      1.774821     1.054093     0.269443      0.004088     0.001006    -0.001949
9
轮次1  Outer Iteration 6, Energy=-154.0875718449, |grad|=0.011859
C     -0.974383     0.051520     0.035130      0.001471    -0.000521    -0.000520
C      0.489164    -0.344477    -0.155550     -0.000431    -0.000199    -0.002666
O      1.344957     0.354642     0.717692     -0.003611    -0.002187     0.006305
H     -1.290836     0.823294    -0.669293     -0.000859    -0.003098    -0.000545
H     -1.635609    -0.808801    -0.095289      0.000114    -0.001212     0.002659
H     -1.117240     0.441325     1.044957     -0.000549     0.003949    -0.000214
H      0.792821    -0.193762    -1.196086     -0.000161     0.002185     0.000144
H      0.618521    -1.406240     0.056984     -0.000207    -0.000069    -0.003052
H      1.758259     1.070072     0.258324      0.004234     0.001152    -0.002110
9
轮次1  Outer Iteration 7, Energy=-154.0880625169, |grad|=0.014287
C     -0.971046     0.052441     0.036679      0.001828    -0.000806    -0.000121
C      0.490301    -0.347757    -0.154083     -0.000384     0.000891    -0.005345
O      1.351425     0.359423     0.708418     -0.003224    -0.002418     0.008544
H     -1.276065     0.843631    -0.650280     -0.000627    -0.003819    -0.000103
H     -1.635999    -0.800179    -0.124010     -0.000148    -0.001321     0.002404
H     -1.122869     0.417941     1.054755     -0.001126     0.004500     0.000245
H      0.789895    -0.218352    -1.198949     -0.000485     0.001202    -0.000465
H      0.616970    -1.405496     0.077602     -0.000285     0.000388    -0.002781
H      1.743042     1.085920     0.246737      0.004450     0.001382    -0.002378
9
轮次1  Outer Iteration 8, Energy=-154.0882732854, |grad|=0.034671
C     -0.963323     0.051893     0.044300     -0.001449    -0.002604     0.011144
C      0.496243    -0.357108    -0.153076      0.009282     0.005791    -0.006984
O      1.341658     0.368622     0.702450     -0.000105     0.015787    -0.000138
H     -1.237578     0.863255    -0.636128      0.001221    -0.003047    -0.004503
H     -1.646578    -0.776701    -0.146548      0.000525     0.002340     0.002380
H     -1.112225     0.395887     1.067337     -0.000265     0.002779    -0.001976
H      0.788799    -0.244074    -1.204155     -0.001134    -0.000650    -0.003680
H      0.629017    -1.411527     0.089762      0.000324     0.000661    -0.003612
H      1.689642     1.097325     0.232928     -0.008400    -0.021058     0.007370
9
轮次1  Outer Iteration 9, Energy=-154.0884836242, |grad|=0.013220
C     -0.967499     0.052621     0.039921      0.000283    -0.001366     0.003829
C      0.492456    -0.353496    -0.151371      0.002603     0.002275    -0.005405
O      1.351830     0.364567     0.701158     -0.002642     0.001815     0.006402
H     -1.256450     0.860172    -0.636522     -0.000356    -0.003508    -0.001741
H     -1.640524    -0.787538    -0.146296     -0.000066    -0.000129     0.001977
H     -1.121114     0.399006     1.063320     -0.000470     0.004006    -0.000583
H      0.788215    -0.236899    -1.199342     -0.000667     0.000815    -0.001015
H      0.621202    -1.408709     0.091267      0.000193     0.000134    -0.003141
H      1.717539     1.097849     0.234736      0.001124    -0.004040    -0.000322
9
轮次1  Outer Iteration 10, Energy=-154.0886174486, |grad|=0.010542
C     -0.967599     0.053498     0.038455      0.000866    -0.000905     0.001788
C      0.491496    -0.353963    -0.149706      0.000750     0.000973    -0.003630
O      1.355250     0.365097     0.697275     -0.002687     0.000700     0.005136
H     -1.257935     0.865664    -0.631863     -0.001003    -0.003053    -0.001232
H     -1.637879    -0.788177    -0.152550      0.000183    -0.000886     0.002158
H     -1.123482     0.393121     1.064028     -0.000331     0.004042    -0.000482
H      0.788602    -0.239764    -1.197228     -0.000227     0.001676    -0.000220
H      0.618168    -1.408611     0.097010      0.000083    -0.000184    -0.003037
H      1.719034     1.100707     0.231449      0.002367    -0.002363    -0.000480
9
轮次1  Outer Iteration 11, Energy=-154.0887623753, |grad|=0.010155
C     -0.967072     0.053585     0.038143      0.000736    -0.001044     0.001240
C      0.491338    -0.355648    -0.147557      0.000381     0.000784    -0.001975
O      1.357031     0.366204     0.694069     -0.003400    -0.000902     0.004878
H     -1.253435     0.871476    -0.627457     -0.001130    -0.002665    -0.001571
H     -1.638782    -0.785378    -0.159802      0.000081    -0.000925     0.002295
H     -1.123652     0.385681     1.065900      0.000143     0.003668    -0.000628
H      0.788485    -0.243595    -1.195122     -0.000046     0.002373     0.000288
H      0.617629    -1.409699     0.102430      0.000076    -0.000449    -0.003105
H      1.714112     1.104947     0.226266      0.003159    -0.000840    -0.001421
9
轮次1  Outer Iteration 12, Energy=-154.0889023150, |grad|=0.009333
C     -0.966258     0.053877     0.038029      0.000289    -0.000906     0.001186
C      0.491502    -0.357952    -0.145936      0.000464     0.000077    -0.000554
O      1.357689     0.367972     0.690863     -0.003382    -0.000023     0.003510
H     -1.247923     0.877604    -0.623087     -0.001174    -0.002139    -0.002026
H     -1.639823    -0.781945    -0.166183      0.000164    -0.000874     0.002562
H     -1.122981     0.378531     1.067863      0.000531     0.003209    -0.000845
H      0.788850    -0.248265    -1.193772      0.000210     0.002942     0.000457
H      0.617583    -1.411453     0.107202      0.000034    -0.000846    -0.003309
H      1.707015     1.109203     0.221890      0.002863    -0.001439    -0.000981
9
轮次1  Outer Iteration 13, Energy=-154.0890373623, |grad|=0.009334
C     -0.965254     0.054089     0.038155      0.000092    -0.000684     0.000827
C      0.491791    -0.359898    -0.144596      0.000593    -0.000298     0.000149
O      1.358719     0.369279     0.688106     -0.003512     0.000037     0.003277
H     -1.242079     0.883093    -0.618398     -0.001025    -0.002095    -0.002108
H     -1.640709    -0.778481    -0.172890      0.000121    -0.000849     0.002711
H     -1.123240     0.371920     1.069925      0.000679     0.002998    -0.000788
H      0.788531    -0.253217    -1.193000      0.000264     0.003255     0.000489
H      0.617909    -1.412456     0.112022      0.000064    -0.000816    -0.003421
H      1.699987     1.113242     0.217545      0.002724    -0.001549    -0.001135
9
轮次1  Outer Iteration 14, Energy=-154.0891704681, |grad|=0.009320
C     -0.964270     0.054331     0.038349     -0.000026    -0.000564     0.000692
C      0.492087    -0.361682    -0.143676      0.000557    -0.000777     0.000383
O      1.360044     0.370650     0.685254     -0.003385     0.000493     0.003134
H     -1.237028     0.888382    -0.613595     -0.000970    -0.001995    -0.002161
H     -1.641211    -0.775264    -0.179484      0.000112    -0.000837     0.002804
H     -1.123876     0.365672     1.071844      0.000716     0.002877    -0.000771
H      0.788050    -0.258744    -1.192760      0.000291     0.003392     0.000456
H      0.617949    -1.413320     0.116792      0.000036    -0.000917    -0.003508
H      1.693909     1.117548     0.214145      0.002670    -0.001672    -0.001029
9
轮次1  Inner Iteration 1, |pred_grad|=0.008906
C     -0.964270     0.054331     0.038349     -0.000184    -0.000522     0.000665
C      0.492087    -0.361682    -0.143676      0.000623    -0.000318    -0.000744
O      1.360044     0.370650     0.685254     -0.002703     0.000246     0.003736
H     -1.237028     0.888382    -0.613595     -0.000862    -0.002349    -0.001749
H     -1.641211    -0.775264    -0.179484      0.000103    -0.000681     0.002735
H     -1.123876     0.365672     1.071844      0.000389     0.003175    -0.000679
H      0.788050    -0.258744    -1.192760      0.000133     0.002876     0.000451
H      0.617949    -1.413320     0.116792      0.000024    -0.000538    -0.003280
H      1.693909     1.117548     0.214145      0.002320    -0.001750    -0.000493
9
轮次1  Inner Iteration 2, |pred_grad|=0.008910
C     -0.964261     0.054357     0.038316     -0.000187    -0.000522     0.000674
C      0.492056    -0.361666    -0.143639      0.000634    -0.000324    -0.000748
O      1.360177     0.370637     0.685069     -0.002706     0.000254     0.003743
H     -1.236985     0.888499    -0.613508     -0.000861    -0.002347    -0.001749
H     -1.641216    -0.775231    -0.179619      0.000100    -0.000680     0.002737
H     -1.123895     0.365515     1.071878      0.000387     0.003176    -0.000679
H      0.788044    -0.258886    -1.192782      0.000133     0.002873     0.000448
H      0.617948    -1.413294     0.116954      0.000024    -0.000538    -0.003279
H      1.693794     1.117634     0.214169      0.002316    -0.001748    -0.000497
9
轮次1  Inner Iteration 3, |pred_grad|=0.008913
C     -0.964252     0.054383     0.038283     -0.000190    -0.000522     0.000684
C      0.492025    -0.361650    -0.143602      0.000644    -0.000331    -0.000752
O      1.360312     0.370625     0.684884     -0.002709     0.000262     0.003750
H     -1.236943     0.888615    -0.613422     -0.000859    -0.002346    -0.001749
H     -1.641221    -0.775197    -0.179755      0.000098    -0.000678     0.002738
H     -1.123915     0.365357     1.071911      0.000385     0.003178    -0.000679
H      0.788037    -0.259029    -1.192804      0.000134     0.002871     0.000446
H      0.617947    -1.413267     0.117116      0.000024    -0.000538    -0.003278
H      1.693679     1.117721     0.214194      0.002313    -0.001745    -0.000501
9
轮次1  Inner Iteration 4, |pred_grad|=0.008917
C     -0.964242     0.054409     0.038249     -0.000193    -0.000521     0.000694
C      0.491993    -0.361634    -0.143565      0.000654    -0.000338    -0.000756
O      1.360446     0.370612     0.684698     -0.002713     0.000270     0.003756
H     -1.236900     0.888731    -0.613335     -0.000857    -0.002344    -0.001750
H     -1.641226    -0.775163    -0.179891      0.000096    -0.000677     0.002740
H     -1.123934     0.365200     1.071945      0.000382     0.003179    -0.000679
H      0.788030    -0.259171    -1.192826      0.000134     0.002868     0.000443
H      0.617946    -1.413241     0.117279      0.000024    -0.000537    -0.003277
H      1.693565     1.117808     0.214219      0.002309    -0.001743    -0.000505
9
轮次1  Inner Iteration 5, |pred_grad|=0.008921
C     -0.964233     0.054435     0.038214     -0.000196    -0.000521     0.000704
C      0.491961    -0.361617    -0.143527      0.000664    -0.000343    -0.000759
O      1.360580     0.370598     0.684512     -0.002716     0.000279     0.003762
H     -1.236857     0.888847    -0.613248     -0.000856    -0.002343    -0.001750
H     -1.641230    -0.775130    -0.180026      0.000093    -0.000675     0.002741
H     -1.123953     0.365042     1.071979      0.000380     0.003180    -0.000679
H      0.788024    -0.259313    -1.192848      0.000134     0.002865     0.000440
H      0.617944    -1.413214     0.117441      0.000024    -0.000537    -0.003276
H      1.693450     1.117894     0.214244      0.002305    -0.001741    -0.000509
9
轮次2  Outer Iteration 0, Energy=-154.0891898843, |grad|=0.009037
C     -0.964223     0.054461     0.038179      0.000149    -0.000492     0.000340
C      0.491928    -0.361600    -0.143489      0.000086    -0.000452     0.001067
O      1.360715     0.370584     0.684325     -0.002946     0.001341     0.002063
H     -1.236815     0.888964    -0.613161     -0.000963    -0.002032    -0.002123
H     -1.641235    -0.775096    -0.180162     -0.000006    -0.000960     0.002823
H     -1.123972     0.364885     1.072012      0.000755     0.002831    -0.000675
H      0.788017    -0.259455    -1.192870      0.000457     0.003453     0.000233
H      0.617943    -1.413187     0.117604      0.000140    -0.001062    -0.003462
H      1.693336     1.117980     0.214269      0.002328    -0.002629    -0.000266
9
轮次2  Outer Iteration 1, Energy=-154.0902069577, |grad|=0.010604
C     -0.956487     0.056965     0.039972     -0.001442     0.001097     0.000014
C      0.495780    -0.374407    -0.137707      0.002506    -0.003656     0.000557
O      1.371367     0.380950     0.661623     -0.003591     0.001603     0.003291
H     -1.201909     0.929110    -0.571735     -0.001300    -0.001798    -0.001718
H     -1.642889    -0.747905    -0.233562      0.000034    -0.000541     0.002909
H     -1.130700     0.315994     1.085494      0.000762     0.002279    -0.000704
H      0.785318    -0.305995    -1.191397      0.000284     0.003406     0.000807
H      0.618120    -1.417589     0.155878     -0.000114    -0.001396    -0.003855
H      1.647093     1.150412     0.188141      0.002860    -0.000994    -0.001301
9
轮次2  Outer Iteration 2, Energy=-154.0911169252, |grad|=0.008052
C     -0.950359     0.057939     0.042964     -0.001566    -0.001750     0.000066
C      0.496767    -0.379227    -0.132780      0.000086     0.002245    -0.000296
O      1.389219     0.385102     0.636118     -0.001539    -0.000028     0.003360
H     -1.167486     0.961857    -0.532801      0.000291    -0.001480    -0.001932
H     -1.639174    -0.724716    -0.285271     -0.000482    -0.001059     0.002156
H     -1.142745     0.270262     1.096174      0.000945     0.001974    -0.000154
H      0.776097    -0.347933    -1.191618      0.000188     0.002677     0.000234
H      0.617291    -1.411312     0.196552      0.000278     0.000056    -0.002093
H      1.606085     1.175564     0.167369      0.001800    -0.002636    -0.001340
9
轮次2  Outer Iteration 3, Energy=-154.0918548508, |grad|=0.009801
C     -0.936471     0.062951     0.046069      0.002689     0.001746     0.001320
C      0.500536    -0.395921    -0.130643      0.000002    -0.003907     0.000370
O      1.396961     0.391949     0.607396     -0.005493     0.002106     0.001189
H     -1.130846     0.995046    -0.492849     -0.001000    -0.000557    -0.001216
H     -1.630292    -0.693240    -0.329803      0.001300    -0.001323     0.001287
H     -1.145568     0.233777     1.103872      0.000219     0.002022     0.000138
H      0.769239    -0.397689    -1.193483     -0.000023     0.002373    -0.000422
H      0.618006    -1.418736     0.229118     -0.000117    -0.001541    -0.002362
H      1.544130     1.209397     0.157029      0.002423    -0.000918    -0.000304
9
轮次2  Outer Iteration 4, Energy=-154.0923799942, |grad|=0.007706
C     -0.932979     0.062887     0.045819     -0.001168    -0.001938    -0.002323
C      0.505134    -0.400924    -0.123916     -0.001035     0.000724     0.003828
O      1.425732     0.394801     0.576368      0.001865    -0.000840     0.002130
H     -1.106152     1.019809    -0.455538     -0.000943    -0.000700    -0.000704
H     -1.635438    -0.662615    -0.372456     -0.001726     0.000376     0.001239
H     -1.158961     0.191294     1.105648      0.000969     0.000546    -0.000797
H      0.763696    -0.438132    -1.188404      0.000280     0.001643     0.000487
H      0.621659    -1.413183     0.263967      0.000207    -0.001023    -0.002109
H      1.503003     1.233598     0.145219      0.001551     0.001212    -0.001753
9
轮次2  Outer Iteration 5, Energy=-154.0926322515, |grad|=0.010300
C     -0.920021     0.067845     0.050237     -0.000061     0.000483     0.002915
C      0.509741    -0.411758    -0.131888      0.001833     0.003421    -0.006522
O      1.430552     0.397216     0.546636     -0.002244    -0.001737     0.003296
H     -1.064094     1.045197    -0.420317      0.001317    -0.000504    -0.000497
H     -1.624192    -0.632140    -0.406377      0.000593    -0.000723     0.000526
H     -1.159903     0.161819     1.111465     -0.000875     0.000464     0.000641
H      0.757617    -0.487644    -1.197335      0.000184    -0.000730    -0.000478
H      0.624754    -1.406561     0.297030      0.000494     0.001987     0.001169
H      1.431241     1.253561     0.147256     -0.001242    -0.002660    -0.001050
9
轮次2  Outer Iteration 6, Energy=-154.0926963204, |grad|=0.006592
C     -0.916470     0.068384     0.050269      0.000491    -0.000111    -0.001027
C      0.509980    -0.418570    -0.123420     -0.001583    -0.002171     0.003251
O      1.445894     0.403931     0.520058     -0.000536     0.002719    -0.002821
H     -1.049926     1.057945    -0.398790      0.000322     0.000517    -0.000136
H     -1.617548    -0.616383    -0.433752      0.000628    -0.000635    -0.000751
H     -1.167236     0.139853     1.110589      0.000956    -0.000096     0.000431
H      0.744137    -0.509322    -1.190851     -0.000578     0.000872    -0.000057
H      0.624357    -1.409957     0.315597     -0.000742    -0.000770    -0.000396
H      1.412506     1.271653     0.147006      0.001042    -0.000324     0.001505
9
轮次2  Outer Iteration 7, Energy=-154.0927162406, |grad|=0.002066
C     -0.917550     0.068632     0.049964      0.000251     0.000193     0.000046
C      0.511508    -0.416918    -0.125937     -0.000106    -0.000008     0.000043
O      1.444773     0.401516     0.526075      0.000146    -0.001202     0.000284
H     -1.058045     1.056088    -0.400786     -0.000682    -0.000078     0.000226
H     -1.622752    -0.616122    -0.427378     -0.000130     0.000391     0.000156
H     -1.169107     0.143488     1.109551     -0.000370     0.000146    -0.000323
H      0.751831    -0.507818    -1.191992      0.000390    -0.000282     0.000005
H      0.627898    -1.408583     0.311789      0.000528    -0.000139    -0.000076
H      1.417139     1.267252     0.145421     -0.000027     0.000980    -0.000362
9
轮次2  Outer Iteration 8, Energy=-154.0927183626, |grad|=0.001237
C     -0.917544     0.067948     0.049904     -0.000050    -0.000252     0.000022
C      0.511330    -0.416336    -0.125945      0.000454     0.000386    -0.000348
O      1.442794     0.402493     0.528360      0.000218     0.000485     0.000340
H     -1.054940     1.054942    -0.402817      0.000280    -0.000072    -0.000098
H     -1.622596    -0.618075    -0.426212     -0.000162    -0.000025     0.000087
H     -1.166580     0.143688     1.110161      0.000036    -0.000096     0.000037
H      0.750766    -0.504847    -1.192270     -0.000213    -0.000011    -0.000043
H      0.625219    -1.408453     0.310998     -0.000384     0.000053     0.000024
H      1.417245     1.266175     0.144527     -0.000179    -0.000468    -0.000023
9
轮次2  Outer Iteration 9, Energy=-154.0927192267, |grad|=0.000440
C     -0.917866     0.068305     0.050051     -0.000094     0.000125    -0.000013
C      0.510809    -0.416651    -0.125644     -0.000148    -0.000102     0.000072
O      1.443110     0.402154     0.527108     -0.000140    -0.000096    -0.000180
H     -1.055641     1.055739    -0.401729      0.000037     0.000055    -0.000028
H     -1.621854    -0.617708    -0.427583      0.000083    -0.000084    -0.000050
H     -1.167628     0.143166     1.110223      0.000066    -0.000010     0.000072
H      0.750535    -0.505576    -1.191875      0.000063     0.000099     0.000053
H      0.626419    -1.408359     0.311828      0.000114     0.000059     0.000041
H      1.417810     1.266465     0.144327      0.000020    -0.000047     0.000033
9
轮次2  Inner Iteration 1, |pred_grad|=0.003216
C     -0.917866     0.068305     0.050051     -0.000127    -0.000588    -0.000124
C      0.510809    -0.416651    -0.125644     -0.000038    -0.000026     0.000857
O      1.443110     0.402154     0.527108     -0.000807     0.000588     0.000851
H     -1.055641     1.055739    -0.401729     -0.000233    -0.000517    -0.000902
H     -1.621854    -0.617708    -0.427583     -0.000172    -0.000299     0.000682
H     -1.167628     0.143166     1.110223      0.000444     0.001132    -0.000205
H      0.750535    -0.505576    -1.191875     -0.000033     0.001042     0.000173
H      0.626419    -1.408359     0.311828     -0.000085    -0.000474    -0.001301
H      1.417810     1.266465     0.144327      0.000970    -0.000502    -0.000189
9
轮次2  Inner Iteration 2, |pred_grad|=0.003214
C     -0.917863     0.068317     0.050054     -0.000127    -0.000589    -0.000124
C      0.510810    -0.416651    -0.125662     -0.000038    -0.000026     0.000857
O      1.443127     0.402142     0.527090     -0.000807     0.000589     0.000851
H     -1.055636     1.055750    -0.401710     -0.000232    -0.000517    -0.000902
H     -1.621850    -0.617702    -0.427597     -0.000172    -0.000299     0.000681
H     -1.167637     0.143142     1.110227      0.000444     0.001131    -0.000204
H      0.750535    -0.505598    -1.191879     -0.000033     0.001040     0.000173
H      0.626421    -1.408349     0.311856     -0.000085    -0.000474    -0.001301
H      1.417789     1.266475     0.144331      0.000969    -0.000501    -0.000188
9
轮次2  Inner Iteration 3, |pred_grad|=0.003212
C     -0.917860     0.068330     0.050056     -0.000127    -0.000589    -0.000124
C      0.510811    -0.416650    -0.125680     -0.000038    -0.000026     0.000857
O      1.443144     0.402130     0.527072     -0.000807     0.000589     0.000851
H     -1.055631     1.055761    -0.401691     -0.000232    -0.000516    -0.000901
H     -1.621847    -0.617695    -0.427612     -0.000172    -0.000298     0.000679
H     -1.167647     0.143118     1.110231      0.000444     0.001131    -0.000204
H      0.750536    -0.505620    -1.191883     -0.000033     0.001038     0.000173
H      0.626422    -1.408339     0.311883     -0.000085    -0.000473    -0.001300
H      1.417769     1.266486     0.144335      0.000969    -0.000501    -0.000188
9
轮次2  Inner Iteration 4, |pred_grad|=0.003211
C     -0.917858     0.068342     0.050059     -0.000127    -0.000589    -0.000124
C      0.510812    -0.416650    -0.125698     -0.000038    -0.000026     0.000857
O      1.443161     0.402117     0.527054     -0.000807     0.000590     0.000851
H     -1.055626     1.055772    -0.401672     -0.000232    -0.000516    -0.000900
H     -1.621843    -0.617689    -0.427626     -0.000172    -0.000298     0.000678
H     -1.167656     0.143094     1.110235      0.000443     0.001130    -0.000203
H      0.750537    -0.505642    -1.191886     -0.000034     0.001036     0.000173
H      0.626424    -1.408329     0.311910     -0.000085    -0.000473    -0.001299
H      1.417749     1.266497     0.144339      0.000968    -0.000501    -0.000188
9
轮次2  Inner Iteration 5, |pred_grad|=0.003209
C     -0.917855     0.068355     0.050061     -0.000127    -0.000589    -0.000124
C      0.510812    -0.416649    -0.125716     -0.000037    -0.000026     0.000857
O      1.443178     0.402105     0.527036     -0.000806     0.000591     0.000851
H     -1.055621     1.055783    -0.401653     -0.000231    -0.000515    -0.000900
H     -1.621840    -0.617683    -0.427640     -0.000172    -0.000298     0.000677
H     -1.167665     0.143071     1.110240      0.000443     0.001129    -0.000203
H      0.750538    -0.505664    -1.191890     -0.000034     0.001035     0.000173
H      0.626426    -1.408319     0.311938     -0.000085    -0.000472    -0.001299
H      1.417728     1.266507     0.144343      0.000967    -0.000500    -0.000188
9
轮次3  Outer Iteration 0, Energy=-154.0927192267, |grad|=0.000440
C     -0.917866     0.068305     0.050051     -0.000094     0.000125    -0.000013
C      0.510809    -0.416651    -0.125644     -0.000148    -0.000102     0.000072
O      1.443110     0.402154     0.527108     -0.000140    -0.000096    -0.000180
H     -1.055641     1.055739    -0.401729      0.000037     0.000055    -0.000028
H     -1.621854    -0.617708    -0.427583      0.000083    -0.000084    -0.000050
H     -1.167628     0.143166     1.110223      0.000066    -0.000010     0.000072
H      0.750535    -0.505576    -1.191875      0.000063     0.000099     0.000053
H      0.626419    -1.408359     0.311828      0.000114     0.000059     0.000041
H      1.417810     1.266465     0.144327      0.000020    -0.000047     0.000033
