9
轮次1  Outer Iteration 0, Energy=-154.0791133506, |grad|=0.157325
C     -0.955964     0.056819     0.047139      0.052344     0.016252     0.009877
C      0.489892    -0.328419    -0.195930      0.014251     0.027987     0.000528
O      1.268139     0.332107     0.739696     -0.085885    -0.060028    -0.000872
H     -1.352851     0.724387    -0.723824     -0.002377    -0.001509     0.000819
H     -1.586672    -0.868323     0.015396     -0.008790    -0.033674    -0.008955
H     -1.077363     0.592524     1.011658     -0.005849     0.025669     0.017414
H      0.786045    -0.144784    -1.233537     -0.003865    -0.005645    -0.003381
H      0.582818    -1.430267    -0.046703     -0.009728    -0.029744    -0.002415
H      1.831611     1.053529     0.382976      0.049899     0.060692    -0.013015
9
轮次1  Outer Iteration 1, Energy=-154.0833144004, |grad|=0.098060
C     -1.007426     0.039685     0.034422     -0.012233    -0.016040     0.002443
C      0.486947    -0.293833    -0.144587     -0.005693     0.023210     0.013113
O      1.387266     0.325710     0.745482      0.050330     0.033738    -0.029822
H     -1.382166     0.712061    -0.744190     -0.005724    -0.003239    -0.003086
H     -1.643561    -0.845852    -0.005257     -0.006349     0.004766    -0.003041
H     -1.149587     0.532794     0.990765      0.004151     0.000102    -0.009400
H      0.786182    -0.082054    -1.174816      0.000432     0.000467     0.001460
H      0.633632    -1.366011    -0.006064      0.003747     0.001838    -0.000234
H      1.874367     0.965072     0.301113     -0.028662    -0.044843     0.028567
9
轮次1  Outer Iteration 2, Energy=-154.0856508374, |grad|=0.021381
C     -0.985626     0.046993     0.039375      0.001063    -0.004071     0.009143
C      0.489020    -0.321079    -0.166079      0.005128     0.006859     0.000244
O      1.327574     0.331621     0.753248     -0.008022    -0.007222     0.004754
H     -1.353475     0.727918    -0.733627     -0.002382    -0.002499    -0.001866
H     -1.623930    -0.838290     0.006903      0.000219     0.000109    -0.001927
H     -1.111950     0.543212     1.001789     -0.000441     0.005093    -0.002721
H      0.793832    -0.113308    -1.196098     -0.000966    -0.001394    -0.000735
H      0.621947    -1.396157    -0.025869     -0.000984    -0.001299    -0.003933
H      1.828262     1.006662     0.317228      0.006384     0.004425    -0.002959
9
轮次1  Outer Iteration 3, Energy=-154.0861121244, |grad|=0.013383
C     -0.982470     0.048850     0.032716     -0.000840     0.001020     0.001669
C      0.487670    -0.336356    -0.162704      0.002318    -0.003655     0.002054
O      1.321852     0.340142     0.745405     -0.001188     0.005467    -0.002375
H     -1.329232     0.758126    -0.723495     -0.001008    -0.001415    -0.002327
H     -1.634483    -0.825443    -0.006659      0.001187     0.000435     0.002853
H     -1.097516     0.512372     1.012415      0.000938     0.001698    -0.001665
H      0.801091    -0.122833    -1.188810      0.000518     0.003984     0.001249
H      0.628720    -1.407108    -0.007390      0.000552    -0.000595    -0.003581
H      1.790021     1.019823     0.295392     -0.002478    -0.006939     0.002123
9
轮次1  Outer Iteration 4, Energy=-154.0865808196, |grad|=0.010300
C     -0.982798     0.048349     0.030605     -0.001767     0.000239    -0.003156
C      0.486711    -0.338237    -0.158818     -0.001315    -0.002859     0.001878
O      1.333391     0.345929     0.735988     -0.001073     0.000382     0.002563
H     -1.316178     0.780723    -0.707861     -0.000134    -0.002124    -0.001696
H     -1.640686    -0.821532    -0.034821     -0.000616    -0.000613     0.004132
H     -1.104519     0.483494     1.023517      0.001143     0.001372    -0.000592
H      0.799341    -0.142704    -1.188922      0.000855     0.004564     0.001160
H      0.623804    -1.406254     0.016356      0.000019    -0.000592    -0.003132
H      1.786589     1.037804     0.280827      0.002888    -0.000368    -0.001157
9
轮次1  Outer Iteration 5, Energy=-154.0870707717, |grad|=0.011239
C     -0.979624     0.049664     0.031835     -0.000850     0.000042    -0.003311
C      0.487549    -0.340869    -0.157429     -0.001745    -0.001709    -0.000924
O      1.340503     0.350461     0.727125     -0.001360    -0.001093     0.005489
H     -1.303717     0.802210    -0.689313     -0.000073    -0.002907    -0.000880
H     -1.640140    -0.815863    -0.064227     -0.000776    -0.001090     0.003896
H     -1.111195     0.460823     1.034422      0.000351     0.002330    -0.000087
H      0.796624    -0.167393    -1.192700      0.000467     0.003585     0.000576
H      0.620833    -1.405553     0.037716     -0.000103    -0.000164    -0.002810
H      1.774821     1.054093     0.269443      0.004088     0.001006    -0.001949
9
轮次1  Outer Iteration 6, Energy=-154.0875718449, |grad|=0.011859
C     -0.974383     0.051520     0.035130      0.001471    -0.000521    -0.000520
C      0.489164    -0.344477    -0.155550     -0.000431    -0.000199    -0.002666
O      1.344957     0.354642     0.717692     -0.003611    -0.002187     0.006305
H     -1.290836     0.823294    -0.669293     -0.000859    -0.003098    -0.000545
H     -1.635609    -0.808801    -0.095289      0.000114    -0.001212     0.002659
H     -1.117240     0.441325     1.044957     -0.000549     0.003949    -0.000214
H      0.792821    -0.193762    -1.196086     -0.000161     0.002185     0.000144
H      0.618521    -1.406240     0.056984     -0.000207    -0.000069    -0.003052
H      1.758259     1.070072     0.258324      0.004234     0.001152    -0.002110
9
轮次1  Outer Iteration 7, Energy=-154.0880625169, |grad|=0.014287
C     -0.971046     0.052441     0.036679      0.001828    -0.000806    -0.000121
C      0.490301    -0.347757    -0.154083     -0.000384     0.000891    -0.005345
O      1.351425     0.359423     0.708418     -0.003224    -0.002418     0.008544
H     -1.276065     0.843631    -0.650280     -0.000627    -0.003819    -0.000103
H     -1.635999    -0.800179    -0.124010     -0.000148    -0.001321     0.002404
H     -1.122869     0.417941     1.054755     -0.001126     0.004500     0.000245
H      0.789895    -0.218352    -1.198949     -0.000485     0.001202    -0.000465
H      0.616970    -1.405496     0.077602     -0.000285     0.000388    -0.002781
H      1.743042     1.085920     0.246737      0.004450     0.001382    -0.002378
9
轮次1  Outer Iteration 8, Energy=-154.0882732854, |grad|=0.034671
C     -0.963323     0.051893     0.044300     -0.001449    -0.002604     0.011144
C      0.496243    -0.357108    -0.153076      0.009282     0.005791    -0.006984
O      1.341658     0.368622     0.702450     -0.000105     0.015787    -0.000138
H     -1.237578     0.863255    -0.636128      0.001221    -0.003047    -0.004503
H     -1.646578    -0.776701    -0.146548      0.000525     0.002340     0.002380
H     -1.112225     0.395887     1.067337     -0.000265     0.002779    -0.001976
H      0.788799    -0.244074    -1.204155     -0.001134    -0.000650    -0.003680
H      0.629017    -1.411527     0.089762      0.000324     0.000661    -0.003612
H      1.689642     1.097325     0.232928     -0.008400    -0.021058     0.007370
9
轮次1  Outer Iteration 9, Energy=-154.0884836242, |grad|=0.013220
C     -0.967499     0.052621     0.039921      0.000283    -0.001366     0.003829
C      0.492456    -0.353496    -0.151371      0.002603     0.002275    -0.005405
O      1.351830     0.364567     0.701158     -0.002642     0.001815     0.006402
H     -1.256450     0.860172    -0.636522     -0.000356    -0.003508    -0.001741
H     -1.640524    -0.787538    -0.146296     -0.000066    -0.000129     0.001977
H     -1.121114     0.399006     1.063320     -0.000470     0.004006    -0.000583
H      0.788215    -0.236899    -1.199342     -0.000667     0.000815    -0.001015
H      0.621202    -1.408709     0.091267      0.000193     0.000134    -0.003141
H      1.717539     1.097849     0.234736      0.001124    -0.004040    -0.000322
9
轮次1  Outer Iteration 10, Energy=-154.0886174486, |grad|=0.010542
C     -0.967599     0.053498     0.038455      0.000866    -0.000905     0.001788
C      0.491496    -0.353963    -0.149706      0.000750     0.000973    -0.003630
O      1.355250     0.365097     0.697275     -0.002687     0.000700     0.005136
H     -1.257935     0.865664    -0.631863     -0.001003    -0.003053    -0.001232
H     -1.637879    -0.788177    -0.152550      0.000183    -0.000886     0.002158
H     -1.123482     0.393121     1.064028     -0.000331     0.004042    -0.000482
H      0.788602    -0.239764    -1.197228     -0.000227     0.001676    -0.000220
H      0.618168    -1.408611     0.097010      0.000083    -0.000184    -0.003037
H      1.719034     1.100707     0.231449      0.002367    -0.002363    -0.000480
9
轮次1  Outer Iteration 11, Energy=-154.0887623753, |grad|=0.010155
C     -0.967072     0.053585     0.038143      0.000736    -0.001044     0.001240
C      0.491338    -0.355648    -0.147557      0.000381     0.000784    -0.001975
O      1.357031     0.366204     0.694069     -0.003400    -0.000902     0.004878
H     -1.253435     0.871476    -0.627457     -0.001130    -0.002665    -0.001571
H     -1.638782    -0.785378    -0.159802      0.000081    -0.000925     0.002295
H     -1.123652     0.385681     1.065900      0.000143     0.003668    -0.000628
H      0.788485    -0.243595    -1.195122     -0.000046     0.002373     0.000288
H      0.617629    -1.409699     0.102430      0.000076    -0.000449    -0.003105
H      1.714112     1.104947     0.226266      0.003159    -0.000840    -0.001421
9
轮次1  Outer Iteration 12, Energy=-154.0889023150, |grad|=0.009333
C     -0.966258     0.053877     0.038029      0.000289    -0.000906     0.001186
C      0.491502    -0.357952    -0.145936      0.000464     0.000077    -0.000554
O      1.357689     0.367972     0.690863     -0.003382    -0.000023     0.003510
H     -1.247923     0.877604    -0.623087     -0.001174    -0.002139    -0.002026
H     -1.639823    -0.781945    -0.166183      0.000164    -0.000874     0.002562
H     -1.122981     0.378531     1.067863      0.000531     0.003209    -0.000845
H      0.788850    -0.248265    -1.193772      0.000210     0.002942     0.000457
H      0.617583    -1.411453     0.107202      0.000034    -0.000846    -0.003309
H      1.707015     1.109203     0.221890      0.002863    -0.001439    -0.000981
9
轮次1  Outer Iteration 13, Energy=-154.0890373623, |grad|=0.009334
C     -0.965254     0.054089     0.038155      0.000092    -0.000684     0.000827
C      0.491791    -0.359898    -0.144596      0.000593    -0.000298     0.000149
O      1.358719     0.369279     0.688106     -0.003512     0.000037     0.003277
H     -1.242079     0.883093    -0.618398     -0.001025    -0.002095    -0.002108
H     -1.640709    -0.778481    -0.172890      0.000121    -0.000849     0.002711
H     -1.123240     0.371920     1.069925      0.000679     0.002998    -0.000788
H      0.788531    -0.253217    -1.193000      0.000264     0.003255     0.000489
H      0.617909    -1.412456     0.112022      0.000064    -0.000816    -0.003421
H      1.699987     1.113242     0.217545      0.002724    -0.001549    -0.001135
9
轮次1  Outer Iteration 14, Energy=-154.0891704681, |grad|=0.009320
C     -0.964270     0.054331     0.038349     -0.000026    -0.000564     0.000692
C      0.492087    -0.361682    -0.143676      0.000557    -0.000777     0.000383
O      1.360044     0.370650     0.685254     -0.003385     0.000493     0.003134
H     -1.237028     0.888382    -0.613595     -0.000970    -0.001995    -0.002161
H     -1.641211    -0.775264    -0.179484      0.000112    -0.000837     0.002804
H     -1.123876     0.365672     1.071844      0.000716     0.002877    -0.000771
H      0.788050    -0.258744    -1.192760      0.000291     0.003392     0.000456
H      0.617949    -1.413320     0.116792      0.000036    -0.000917    -0.003508
H      1.693909     1.117548     0.214145      0.002670    -0.001672    -0.001029
9
轮次1  Inner Iteration 1, |pred_grad|=0.008907
C     -0.964270     0.054331     0.038349     -0.000070    -0.000641     0.000697
C      0.492087    -0.361682    -0.143676      0.000408    -0.000336    -0.000558
O      1.360044     0.370650     0.685254     -0.002819     0.000446     0.003690
H     -1.237028     0.888382    -0.613595     -0.000886    -0.002571    -0.001557
H     -1.641211    -0.775264    -0.179484      0.000014    -0.000765     0.002648
H     -1.123876     0.365672     1.071844      0.000357     0.003061    -0.000703
H      0.788050    -0.258744    -1.192760      0.000111     0.002960     0.000407
H      0.617949    -1.413320     0.116792      0.000090    -0.000642    -0.003278
H      1.693909     1.117548     0.214145      0.002273    -0.001628    -0.000862
9
轮次1  Inner Iteration 2, |pred_grad|=0.008907
C     -0.964266     0.054363     0.038315     -0.000071    -0.000641     0.000700
C      0.492067    -0.361665    -0.143648      0.000407    -0.000334    -0.000554
O      1.360183     0.370627     0.685071     -0.002820     0.000446     0.003689
H     -1.236984     0.888510    -0.613518     -0.000886    -0.002571    -0.001557
H     -1.641211    -0.775226    -0.179615      0.000013    -0.000765     0.002648
H     -1.123894     0.365520     1.071879      0.000357     0.003061    -0.000703
H      0.788045    -0.258890    -1.192780      0.000111     0.002961     0.000407
H      0.617945    -1.413289     0.116954      0.000090    -0.000642    -0.003279
H      1.693796     1.117628     0.214188      0.002272    -0.001628    -0.000862
9
轮次1  Inner Iteration 3, |pred_grad|=0.008906
C     -0.964263     0.054395     0.038280     -0.000072    -0.000641     0.000703
C      0.492047    -0.361649    -0.143621      0.000405    -0.000333    -0.000551
O      1.360323     0.370605     0.684889     -0.002820     0.000446     0.003688
H     -1.236940     0.888637    -0.613441     -0.000887    -0.002571    -0.001558
H     -1.641212    -0.775189    -0.179746      0.000013    -0.000765     0.002648
H     -1.123912     0.365369     1.071914      0.000358     0.003061    -0.000703
H      0.788039    -0.259037    -1.192800      0.000111     0.002962     0.000407
H      0.617940    -1.413257     0.117116      0.000090    -0.000642    -0.003279
H      1.693684     1.117709     0.214230      0.002270    -0.001627    -0.000863
9
轮次1  Inner Iteration 4, |pred_grad|=0.008906
C     -0.964259     0.054427     0.038245     -0.000073    -0.000641     0.000707
C      0.492027    -0.361632    -0.143593      0.000404    -0.000331    -0.000548
O      1.360463     0.370583     0.684706     -0.002821     0.000446     0.003687
H     -1.236896     0.888764    -0.613364     -0.000888    -0.002571    -0.001559
H     -1.641213    -0.775151    -0.179877      0.000012    -0.000765     0.002648
H     -1.123929     0.365217     1.071949      0.000359     0.003061    -0.000703
H      0.788034    -0.259184    -1.192820      0.000111     0.002962     0.000406
H      0.617936    -1.413225     0.117279      0.000090    -0.000643    -0.003279
H      1.693571     1.117790     0.214273      0.002269    -0.001626    -0.000863
9
轮次1  Inner Iteration 5, |pred_grad|=0.008906
C     -0.964256     0.054458     0.038210     -0.000074    -0.000641     0.000710
C      0.492007    -0.361616    -0.143566      0.000402    -0.000330    -0.000544
O      1.360602     0.370561     0.684523     -0.002821     0.000446     0.003686
H     -1.236852     0.888892    -0.613286     -0.000888    -0.002571    -0.001559
H     -1.641213    -0.775113    -0.180008      0.000012    -0.000765     0.002648
H     -1.123947     0.365066     1.071983      0.000359     0.003061    -0.000703
H      0.788028    -0.259331    -1.192840      0.000111     0.002963     0.000406
H      0.617931    -1.413193     0.117441      0.000090    -0.000643    -0.003279
H      1.693459     1.117870     0.214316      0.002268    -0.001626    -0.000864
9
轮次2  Outer Iteration 0, Energy=-154.0891899574, |grad|=0.009024
C     -0.964252     0.054490     0.038175      0.000032    -0.000529     0.000377
C      0.491987    -0.361599    -0.143539      0.000231    -0.000477     0.000935
O      1.360742     0.370539     0.684341     -0.002933     0.001387     0.002049
H     -1.236808     0.889019    -0.613209     -0.000963    -0.001992    -0.002155
H     -1.641214    -0.775075    -0.180139      0.000025    -0.000938     0.002835
H     -1.123965     0.364914     1.072018      0.000752     0.002829    -0.000665
H      0.788023    -0.259477    -1.192860      0.000422     0.003436     0.000314
H      0.617927    -1.413161     0.117604      0.000131    -0.001032    -0.003455
H      1.693347     1.117951     0.214359      0.002303    -0.002684    -0.000234
9
轮次2  Outer Iteration 1, Energy=-154.0902069733, |grad|=0.010619
C     -0.956481     0.056982     0.039960     -0.001438     0.001113    -0.000009
C      0.495776    -0.374422    -0.137657      0.002476    -0.003664     0.000633
O      1.371419     0.380911     0.661628     -0.003602     0.001541     0.003303
H     -1.201875     0.929126    -0.571732     -0.001301    -0.001815    -0.001704
H     -1.642914    -0.747867    -0.233604      0.000020    -0.000548     0.002901
H     -1.130688     0.316018     1.085476      0.000774     0.002279    -0.000713
H      0.785339    -0.305949    -1.191359      0.000297     0.003427     0.000786
H      0.618089    -1.417629     0.155885     -0.000116    -0.001412    -0.003857
H      1.647121     1.150431     0.188152      0.002890    -0.000922    -0.001338
9
轮次2  Outer Iteration 2, Energy=-154.0911171977, |grad|=0.008045
C     -0.950266     0.057993     0.042973     -0.001487    -0.001708     0.000097
C      0.496778    -0.379256    -0.132849      0.000068     0.002259    -0.000342
O      1.389103     0.385085     0.636180     -0.001566     0.000044     0.003362
H     -1.167385     0.961896    -0.532796      0.000293    -0.001494    -0.001922
H     -1.639136    -0.724641    -0.285220     -0.000475    -0.001069     0.002158
H     -1.142660     0.270343     1.096180      0.000923     0.001979    -0.000149
H      0.776149    -0.348030    -1.191711      0.000192     0.002652     0.000190
H      0.617299    -1.411334     0.196513      0.000285     0.000057    -0.002087
H      1.605905     1.175544     0.167478      0.001767    -0.002719    -0.001306
9
轮次2  Outer Iteration 3, Energy=-154.0918557129, |grad|=0.009737
C     -0.936538     0.062948     0.046033      0.002602     0.001663     0.001283
C      0.500554    -0.395884    -0.130600      0.000027    -0.003941     0.000357
O      1.397151     0.391923     0.607369     -0.005406     0.002171     0.001156
H     -1.130957     0.995069    -0.492907     -0.001015    -0.000513    -0.001245
H     -1.630351    -0.693234    -0.329805      0.001295    -0.001292     0.001305
H     -1.145637     0.233747     1.103840      0.000230     0.002008     0.000137
H      0.769222    -0.397657    -1.193380     -0.000043     0.002373    -0.000337
H      0.617977    -1.418716     0.229093     -0.000127    -0.001535    -0.002387
H      1.544366     1.209403     0.157105      0.002436    -0.000934    -0.000270
9
轮次2  Outer Iteration 4, Energy=-154.0923788308, |grad|=0.007893
C     -0.933069     0.062853     0.045815     -0.001230    -0.001997    -0.002343
C      0.505104    -0.400813    -0.123848     -0.001059     0.000885     0.003873
O      1.425882     0.394671     0.576374      0.001896    -0.001130     0.002203
H     -1.106138     1.019794    -0.455509     -0.000909    -0.000722    -0.000701
H     -1.635502    -0.662630    -0.372574     -0.001760     0.000369     0.001225
H     -1.159062     0.191224     1.105641      0.000991     0.000546    -0.000801
H      0.763720    -0.437949    -1.188335      0.000305     0.001674     0.000482
H      0.621637    -1.413046     0.264093      0.000223    -0.000992    -0.002066
H      1.503214     1.233495     0.145090      0.001542     0.001366    -0.001872
9
轮次2  Outer Iteration 5, Energy=-154.0926319083, |grad|=0.010254
C     -0.919862     0.067930     0.050228      0.000029     0.000647     0.002931
C      0.509824    -0.411924    -0.131900      0.001884     0.003288    -0.006486
O      1.430332     0.397342     0.546750     -0.002307    -0.001572     0.003313
H     -1.063907     1.045282    -0.420218      0.001284    -0.000558    -0.000456
H     -1.624219    -0.631905    -0.406359      0.000588    -0.000726     0.000529
H     -1.159753     0.161883     1.111441     -0.000891     0.000465     0.000617
H      0.757736    -0.487826    -1.197404      0.000180    -0.000754    -0.000563
H      0.624793    -1.406778     0.296960      0.000482     0.001934     0.001140
H      1.430842     1.253595     0.147250     -0.001250    -0.002726    -0.001024
9
轮次2  Outer Iteration 6, Energy=-154.0926969141, |grad|=0.006647
C     -0.916559     0.068380     0.050245      0.000441    -0.000205    -0.001015
C      0.509968    -0.418400    -0.123512     -0.001596    -0.002092     0.003113
O      1.445962     0.403884     0.520237     -0.000467     0.002975    -0.002845
H     -1.050178     1.057848    -0.399040      0.000335     0.000544    -0.000164
H     -1.617607    -0.616572    -0.433518      0.000625    -0.000619    -0.000723
H     -1.167273     0.140010     1.110578      0.000934    -0.000100     0.000445
H      0.744159    -0.509253    -1.190892     -0.000595     0.000808    -0.000017
H      0.624321    -1.409812     0.315409     -0.000738    -0.000738    -0.000411
H      1.412992     1.271514     0.147240      0.001061    -0.000572     0.001617
9
轮次2  Outer Iteration 7, Energy=-154.0927161729, |grad|=0.002302
C     -0.917552     0.068652     0.049972      0.000243     0.000187     0.000046
C      0.511484    -0.416944    -0.125895     -0.000114     0.000002     0.000068
O      1.444780     0.401418     0.526048      0.000114    -0.001445     0.000302
H     -1.057955     1.056150    -0.400748     -0.000677    -0.000062     0.000218
H     -1.622719    -0.616070    -0.427465     -0.000119     0.000385     0.000150
H     -1.169128     0.143462     1.109560     -0.000361     0.000145    -0.000316
H      0.751871    -0.507702    -1.191928      0.000411    -0.000234     0.000033
H      0.627907    -1.408587     0.311865      0.000547    -0.000121    -0.000052
H      1.417099     1.267221     0.145339     -0.000044     0.001143    -0.000448
9
轮次2  Outer Iteration 8, Energy=-154.0927183187, |grad|=0.001309
C     -0.917518     0.067964     0.049889     -0.000044    -0.000246     0.000025
C      0.511373    -0.416332    -0.125957      0.000481     0.000378    -0.000366
O      1.442813     0.402520     0.528423      0.000241     0.000564     0.000365
H     -1.054958     1.054955    -0.402795      0.000268    -0.000089    -0.000085
H     -1.622628    -0.618010    -0.426212     -0.000175    -0.000014     0.000092
H     -1.166581     0.143712     1.110132      0.000028    -0.000092     0.000024
H      0.750786    -0.504925    -1.192293     -0.000228    -0.000040    -0.000062
H      0.625198    -1.408470     0.310966     -0.000397     0.000039     0.000013
H      1.417299     1.266187     0.144595     -0.000174    -0.000500    -0.000005
9
轮次2  Outer Iteration 9, Energy=-154.0927192163, |grad|=0.000461
C     -0.917854     0.068327     0.050048     -0.000094     0.000131    -0.000014
C      0.510807    -0.416652    -0.125630     -0.000154    -0.000102     0.000081
O      1.443102     0.402144     0.527134     -0.000145    -0.000060    -0.000201
H     -1.055572     1.055768    -0.401734      0.000045     0.000056    -0.000031
H     -1.621841    -0.617679    -0.427604      0.000084    -0.000090    -0.000051
H     -1.167614     0.143175     1.110223      0.000069    -0.000013     0.000076
H      0.750549    -0.505544    -1.191862      0.000064     0.000106     0.000051
H      0.626395    -1.408368     0.311827      0.000112     0.000060     0.000041
H      1.417813     1.266430     0.144344      0.000019    -0.000086     0.000047
9
轮次2  Inner Iteration 1, |pred_grad|=0.003351
C     -0.917854     0.068327     0.050048     -0.000115    -0.000688    -0.000034
C      0.510807    -0.416652    -0.125630     -0.000133     0.000167     0.000438
O      1.443102     0.402144     0.527134     -0.000841     0.000378     0.001065
H     -1.055572     1.055768    -0.401734     -0.000302    -0.000764    -0.000748
H     -1.621841    -0.617679    -0.427604     -0.000103    -0.000351     0.000709
H     -1.167614     0.143175     1.110223      0.000441     0.001216    -0.000198
H      0.750549    -0.505544    -1.191862     -0.000034     0.001107     0.000118
H      0.626395    -1.408368     0.311827     -0.000047    -0.000383    -0.001342
H      1.417813     1.266430     0.144344      0.000985    -0.000818    -0.000322
9
轮次2  Inner Iteration 2, |pred_grad|=0.003350
C     -0.917852     0.068342     0.050049     -0.000114    -0.000688    -0.000034
C      0.510809    -0.416656    -0.125639     -0.000133     0.000167     0.000436
O      1.443120     0.402136     0.527111     -0.000840     0.000378     0.001066
H     -1.055565     1.055785    -0.401718     -0.000302    -0.000765    -0.000747
H     -1.621838    -0.617671    -0.427619     -0.000103    -0.000351     0.000708
H     -1.167623     0.143148     1.110228      0.000441     0.001217    -0.000198
H      0.750550    -0.505568    -1.191864     -0.000034     0.001106     0.000117
H      0.626396    -1.408360     0.311857     -0.000047    -0.000383    -0.001342
H      1.417792     1.266447     0.144351      0.000985    -0.000819    -0.000322
9
轮次2  Inner Iteration 3, |pred_grad|=0.003350
C     -0.917849     0.068357     0.050050     -0.000113    -0.000688    -0.000034
C      0.510812    -0.416660    -0.125649     -0.000132     0.000168     0.000434
O      1.443138     0.402127     0.527088     -0.000839     0.000378     0.001067
H     -1.055558     1.055802    -0.401702     -0.000302    -0.000765    -0.000747
H     -1.621836    -0.617664    -0.427635     -0.000102    -0.000351     0.000708
H     -1.167633     0.143122     1.110232      0.000440     0.001218    -0.000198
H      0.750551    -0.505592    -1.191867     -0.000035     0.001105     0.000117
H      0.626397    -1.408352     0.311886     -0.000047    -0.000382    -0.001341
H      1.417770     1.266465     0.144358      0.000985    -0.000820    -0.000322
9
轮次2  Inner Iteration 4, |pred_grad|=0.003349
C     -0.917847     0.068372     0.050050     -0.000113    -0.000688    -0.000034
C      0.510815    -0.416663    -0.125658     -0.000132     0.000168     0.000432
O      1.443156     0.402119     0.527065     -0.000838     0.000377     0.001067
H     -1.055552     1.055818    -0.401685     -0.000301    -0.000765    -0.000746
H     -1.621834    -0.617656    -0.427650     -0.000102    -0.000350     0.000708
H     -1.167642     0.143095     1.110236      0.000440     0.001219    -0.000198
H      0.750552    -0.505616    -1.191869     -0.000035     0.001104     0.000117
H      0.626398    -1.408343     0.311915     -0.000047    -0.000381    -0.001340
H      1.417749     1.266483     0.144365      0.000985    -0.000821    -0.000322
9
轮次2  Inner Iteration 5, |pred_grad|=0.003348
C     -0.917845     0.068387     0.050051     -0.000112    -0.000688    -0.000034
C      0.510818    -0.416667    -0.125668     -0.000131     0.000169     0.000430
O      1.443175     0.402111     0.527041     -0.000837     0.000377     0.001068
H     -1.055545     1.055835    -0.401669     -0.000301    -0.000765    -0.000746
H     -1.621832    -0.617648    -0.427666     -0.000101    -0.000350     0.000707
H     -1.167652     0.143069     1.110241      0.000439     0.001220    -0.000198
H      0.750552    -0.505640    -1.191872     -0.000035     0.001103     0.000117
H      0.626399    -1.408335     0.311944     -0.000047    -0.000381    -0.001340
H      1.417727     1.266501     0.144372      0.000985    -0.000822    -0.000322
9
轮次3  Outer Iteration 0, Energy=-154.0927192163, |grad|=0.000461
C     -0.917854     0.068327     0.050048     -0.000094     0.000131    -0.000014
C      0.510807    -0.416652    -0.125630     -0.000154    -0.000102     0.000081
O      1.443102     0.402144     0.527134     -0.000145    -0.000060    -0.000201
H     -1.055572     1.055768    -0.401734      0.000045     0.000056    -0.000031
H     -1.621841    -0.617679    -0.427604      0.000084    -0.000090    -0.000051
H     -1.167614     0.143175     1.110223      0.000069    -0.000013     0.000076
H      0.750549    -0.505544    -1.191862      0.000064     0.000106     0.000051
H      0.626395    -1.408368     0.311827      0.000112     0.000060     0.000041
H      1.417813     1.266430     0.144344      0.000019    -0.000086     0.000047
