9
轮次1  Outer Iteration 0, Energy=-154.0805970818, |grad|=0.174638
C     -0.930571     0.244541    -0.082635     -0.007619    -0.008832     0.037032
C      0.391997    -0.358206     0.365922     -0.003429    -0.014284    -0.024017
O      1.409971     0.493817    -0.092899     -0.061715     0.051402     0.086895
H     -1.718010    -0.500341    -0.245329      0.004107    -0.008628    -0.019533
H     -0.729886     0.702878    -1.083257      0.013120     0.009305    -0.028682
H     -1.205933     1.053648     0.613024      0.011084     0.014436     0.014200
H      0.472068    -0.344901     1.478138      0.005686     0.015537     0.029465
H      0.549959    -1.379830    -0.015488      0.007186    -0.007726    -0.011004
H      1.760406     0.088393    -0.937475      0.031579    -0.051211    -0.084354
9
轮次1  Outer Iteration 1, Energy=-154.0862761611, |grad|=0.116963
C     -0.952946     0.251517    -0.087704     -0.024927    -0.009328     0.018925
C      0.406673    -0.327117     0.329974     -0.013381    -0.008841    -0.002347
O      1.530859     0.438906    -0.089768      0.050288    -0.022696    -0.063023
H     -1.730310    -0.508871    -0.177070     -0.000924     0.002655    -0.012297
H     -0.849142     0.703207    -1.075401      0.000644    -0.000487     0.004978
H     -1.269807     1.045872     0.584117      0.004634    -0.000197    -0.004798
H      0.483095    -0.343357     1.416290      0.005326     0.009424    -0.001742
H      0.505569    -1.349927    -0.038189      0.000350     0.003494    -0.001441
H      1.876010     0.089771    -0.862249     -0.022010     0.025977     0.061745
9
轮次1  Outer Iteration 2, Energy=-154.0880885736, |grad|=0.035653
C     -0.934997     0.254244    -0.090162     -0.011140    -0.001904     0.016045
C      0.403614    -0.340014     0.347010     -0.004419    -0.013188     0.000374
O      1.484148     0.457666    -0.088025     -0.005491     0.010087     0.008364
H     -1.711606    -0.506360    -0.188781      0.003531    -0.000949    -0.011341
H     -0.808968     0.705961    -1.079601      0.001014     0.002435    -0.000909
H     -1.252654     1.051261     0.582866      0.004256     0.002471    -0.001378
H      0.474621    -0.357968     1.436081      0.004062     0.008128     0.001109
H      0.513841    -1.362976    -0.023141      0.001004     0.001086    -0.001939
H      1.832002     0.098186    -0.896248      0.007182    -0.008167    -0.010325
9
轮次1  Outer Iteration 3, Energy=-154.0889392135, |grad|=0.017026
C     -0.923121     0.259900    -0.101615     -0.001562     0.000664     0.003456
C      0.408784    -0.335904     0.344740      0.000226    -0.006508     0.004435
O      1.495046     0.453223    -0.079034     -0.000685     0.001959    -0.010696
H     -1.701726    -0.504294    -0.151480      0.002379    -0.000633    -0.004448
H     -0.816699     0.697819    -1.097375      0.000469     0.003264     0.000734
H     -1.252498     1.053435     0.570302     -0.000247    -0.001526    -0.000020
H      0.461027    -0.380924     1.432550      0.001501     0.002240    -0.000939
H      0.502119    -1.361193    -0.024196     -0.002670     0.000596     0.001427
H      1.827068     0.117938    -0.893892      0.000589    -0.000057     0.006049
9
轮次1  Outer Iteration 4, Energy=-154.0894584498, |grad|=0.010749
C     -0.924041     0.260280    -0.105985     -0.001854    -0.001781     0.000642
C      0.409435    -0.333250     0.336953      0.000564     0.003602    -0.003216
O      1.510178     0.445846    -0.055669     -0.002189     0.001011     0.001472
H     -1.712174    -0.497539    -0.118788     -0.000922    -0.000198    -0.002351
H     -0.830199     0.674698    -1.112356      0.001709     0.002249     0.001469
H     -1.242453     1.065825     0.559184     -0.002180    -0.002000     0.002258
H      0.450941    -0.394677     1.425671      0.002274     0.001887     0.000212
H      0.507196    -1.357176    -0.039196     -0.001078    -0.000744     0.001515
H      1.831118     0.135993    -0.889815      0.003675    -0.004026    -0.002001
9
轮次1  Outer Iteration 5, Energy=-154.0900177464, |grad|=0.009031
C     -0.916914     0.260127    -0.108974      0.000115     0.000877    -0.001267
C      0.409129    -0.343662     0.339065      0.001677     0.000820    -0.001482
O      1.507604     0.444615    -0.038626     -0.003190     0.000737    -0.003327
H     -1.714707    -0.487424    -0.094578     -0.000099    -0.000511    -0.001988
H     -0.829332     0.647714    -1.126202      0.001040     0.002137     0.001796
H     -1.216603     1.086153     0.539695     -0.002345    -0.001722     0.002272
H      0.441578    -0.416002     1.427653      0.001758     0.001471     0.000785
H      0.509591    -1.364113    -0.047308     -0.001160    -0.001419     0.001539
H      1.809654     0.172593    -0.890725      0.002204    -0.002391     0.001673
9
轮次1  Outer Iteration 6, Energy=-154.0905210771, |grad|=0.008755
C     -0.911566     0.258141    -0.110538      0.000203     0.000104    -0.000194
C      0.408387    -0.351154     0.341437      0.000732    -0.000695     0.001409
O      1.509942     0.441979    -0.020799     -0.002183     0.002432    -0.004352
H     -1.717534    -0.479282    -0.071478      0.000484    -0.000707    -0.002241
H     -0.830067     0.619783    -1.138783      0.000802     0.002444     0.000831
H     -1.190079     1.104382     0.520047     -0.001105    -0.001995     0.001736
H      0.432633    -0.435568     1.428551      0.001151     0.001037     0.000041
H      0.507026    -1.366519    -0.057034     -0.002448    -0.000467     0.001423
H      1.791258     0.208237    -0.891404      0.002364    -0.002152     0.001348
9
轮次1  Outer Iteration 7, Energy=-154.0909876022, |grad|=0.008154
C     -0.907460     0.257940    -0.112097      0.000393     0.001084     0.000363
C      0.407979    -0.359037     0.340838      0.000792    -0.001201    -0.000329
O      1.512336     0.436099    -0.002066     -0.003099     0.001475    -0.003512
H     -1.721795    -0.468289    -0.047399      0.000658    -0.000664    -0.001928
H     -0.832910     0.593179    -1.149904      0.000795     0.002244     0.000954
H     -1.169510     1.123437     0.499430     -0.001774    -0.001312     0.001257
H      0.426660    -0.453555     1.426974      0.001783     0.001419    -0.000272
H      0.512307    -1.370271    -0.067570     -0.001026    -0.000646     0.001276
H      1.772393     0.240498    -0.888206      0.001478    -0.002399     0.002192
9
轮次1  Outer Iteration 8, Energy=-154.0914140868, |grad|=0.006846
C     -0.903534     0.255794    -0.114380      0.000094     0.000008     0.000042
C      0.407901    -0.365981     0.341054      0.000393    -0.000225     0.000170
O      1.517119     0.430359     0.014293     -0.001971     0.002120    -0.002911
H     -1.727575    -0.457012    -0.024291     -0.000003    -0.000635    -0.001996
H     -0.836854     0.564585    -1.161056      0.000743     0.001720     0.000835
H     -1.144004     1.139054     0.480742     -0.001081    -0.001063     0.001720
H      0.417084    -0.470509     1.427093      0.000907     0.001000     0.000890
H      0.512119    -1.373876    -0.076884     -0.001443    -0.000939     0.000754
H      1.757742     0.277586    -0.886571      0.002361    -0.001987     0.000495
9
轮次1  Outer Iteration 9, Energy=-154.0917892294, |grad|=0.006105
C     -0.898741     0.254954    -0.116972     -0.000117     0.000186     0.000441
C      0.407726    -0.373004     0.341110      0.000338    -0.000720    -0.000051
O      1.520615     0.423457     0.032169     -0.002058     0.002040    -0.001350
H     -1.729185    -0.446156    -0.000992      0.000508    -0.000720    -0.001629
H     -0.840694     0.538090    -1.172052      0.000559     0.001836     0.000248
H     -1.120272     1.155064     0.458978     -0.000608    -0.001269     0.001038
H      0.412093    -0.487896     1.425020      0.001757     0.001123    -0.000504
H      0.512501    -1.376314    -0.086302     -0.001529    -0.000015     0.000945
H      1.735957     0.311805    -0.880959      0.001150    -0.002460     0.000863
9
轮次1  Outer Iteration 10, Energy=-154.0921062075, |grad|=0.005265
C     -0.894590     0.254084    -0.117940     -0.000084     0.000523     0.001358
C      0.407922    -0.381203     0.340807      0.000071    -0.000968     0.000448
O      1.525027     0.414991     0.045146     -0.001631     0.001396    -0.002344
H     -1.733443    -0.432377     0.022618      0.000255    -0.000425    -0.001312
H     -0.843739     0.510205    -1.180226      0.000872     0.001289     0.000522
H     -1.099546     1.171151     0.437714     -0.001336    -0.000526     0.000709
H      0.402016    -0.505368     1.424001      0.000133     0.000631     0.000011
H      0.515915    -1.381331    -0.094746     -0.000306    -0.000551     0.000583
H      1.720438     0.349849    -0.877373      0.002025    -0.001369     0.000024
9
轮次1  Outer Iteration 11, Energy=-154.0923632673, |grad|=0.004613
C     -0.889656     0.251843    -0.122716      0.000389    -0.000452    -0.000883
C      0.408246    -0.388446     0.340159      0.000409     0.000438    -0.000878
O      1.528350     0.407977     0.061581     -0.001384     0.001567    -0.000378
H     -1.736896    -0.418563     0.044322     -0.000205    -0.000500    -0.001145
H     -0.851090     0.482473    -1.191526      0.000034     0.001018     0.000249
H     -1.070871     1.183725     0.416629     -0.000164    -0.000504     0.001311
H      0.398825    -0.520583     1.423009      0.001530     0.000757     0.001009
H      0.514482    -1.385530    -0.103600     -0.001328    -0.000618     0.000220
H      1.698611     0.387104    -0.867858      0.000719    -0.001706     0.000495
9
轮次1  Outer Iteration 12, Energy=-154.0925559662, |grad|=0.002991
C     -0.885348     0.251470    -0.123764     -0.000335     0.000465     0.000992
C      0.408306    -0.395800     0.339648      0.000006    -0.000569     0.000300
O      1.532941     0.398559     0.073436     -0.000809     0.000940    -0.000658
H     -1.737494    -0.405328     0.068169      0.000383    -0.000497    -0.000639
H     -0.854233     0.455256    -1.198593      0.000601     0.000738     0.000073
H     -1.049635     1.198367     0.393383     -0.000322    -0.000564     0.000233
H      0.389673    -0.537836     1.419742      0.000242     0.000388    -0.000853
H      0.516369    -1.388629    -0.111800     -0.000402     0.000207     0.000538
H      1.679421     0.423940    -0.860222      0.000635    -0.001107     0.000013
9
轮次1  Outer Iteration 13, Energy=-154.0926742380, |grad|=0.001878
C     -0.880906     0.249517    -0.127312      0.000337    -0.000134    -0.000114
C      0.408888    -0.404372     0.338691     -0.000047    -0.000299     0.000020
O      1.536955     0.389333     0.085783     -0.000694     0.000450     0.000010
H     -1.741366    -0.388150     0.090412     -0.000042     0.000041    -0.000470
H     -0.863060     0.427295    -1.207162     -0.000202     0.000526    -0.000019
H     -1.025403     1.210722     0.369824     -0.000412    -0.000114     0.000265
H      0.386045    -0.553493     1.418727      0.000691     0.000260     0.000618
H      0.517017    -1.394464    -0.120293     -0.000295    -0.000379    -0.000008
H      1.661830     0.463612    -0.848671      0.000664    -0.000350    -0.000301
9
轮次1  Outer Iteration 14, Energy=-154.0927151573, |grad|=0.002320
C     -0.876374     0.248259    -0.129640     -0.000077    -0.000148     0.000361
C      0.409431    -0.410828     0.336692      0.000446     0.000933    -0.001288
O      1.540648     0.381233     0.096300      0.000209     0.000179    -0.000090
H     -1.741839    -0.373522     0.113661     -0.000189    -0.000407     0.000075
H     -0.866753     0.398419    -1.213692      0.000602    -0.000358     0.000139
H     -0.999138     1.222647     0.347601      0.000348     0.000185     0.000389
H      0.376583    -0.568603     1.414738     -0.000574     0.000166    -0.000183
H      0.518084    -1.397463    -0.129276     -0.000148    -0.000052     0.000014
H      1.639358     0.499856    -0.836384     -0.000617    -0.000499     0.000583
9
轮次1  Inner Iteration 1, |pred_grad|=0.002101
C     -0.876374     0.248259    -0.129640     -0.000057    -0.000151     0.000321
C      0.409431    -0.410828     0.336692      0.000412     0.000853    -0.001243
O      1.540648     0.381233     0.096300     -0.000121     0.000242    -0.000112
H     -1.741839    -0.373522     0.113661     -0.000184    -0.000375    -0.000024
H     -0.866753     0.398419    -1.213692      0.000562    -0.000084     0.000067
H     -0.999138     1.222647     0.347601      0.000242     0.000050     0.000430
H      0.376583    -0.568603     1.414738     -0.000492     0.000187    -0.000144
H      0.518084    -1.397463    -0.129276     -0.000184    -0.000090     0.000023
H      1.639358     0.499856    -0.836384     -0.000427    -0.000459     0.000526
9
轮次1  Inner Iteration 2, |pred_grad|=0.002101
C     -0.876374     0.248262    -0.129645     -0.000057    -0.000151     0.000321
C      0.409424    -0.410841     0.336711      0.000412     0.000853    -0.001243
O      1.540649     0.381230     0.096302     -0.000121     0.000242    -0.000112
H     -1.741836    -0.373516     0.113661     -0.000184    -0.000375    -0.000023
H     -0.866761     0.398421    -1.213693      0.000562    -0.000084     0.000067
H     -0.999141     1.222647     0.347595      0.000242     0.000050     0.000431
H      0.376591    -0.568606     1.414740     -0.000492     0.000187    -0.000144
H      0.518087    -1.397462    -0.129277     -0.000184    -0.000090     0.000023
H      1.639365     0.499863    -0.836392     -0.000427    -0.000459     0.000526
9
轮次1  Inner Iteration 3, |pred_grad|=0.002101
C     -0.876373     0.248264    -0.129650     -0.000057    -0.000151     0.000321
C      0.409418    -0.410855     0.336730      0.000412     0.000853    -0.001243
O      1.540651     0.381226     0.096304     -0.000121     0.000242    -0.000112
H     -1.741834    -0.373510     0.113662     -0.000184    -0.000375    -0.000023
H     -0.866770     0.398422    -1.213694      0.000562    -0.000084     0.000067
H     -0.999145     1.222646     0.347588      0.000242     0.000050     0.000431
H      0.376598    -0.568609     1.414742     -0.000492     0.000187    -0.000144
H      0.518090    -1.397460    -0.129277     -0.000184    -0.000090     0.000023
H      1.639372     0.499871    -0.836400     -0.000427    -0.000459     0.000526
9
轮次1  Inner Iteration 4, |pred_grad|=0.002101
C     -0.876372     0.248266    -0.129655     -0.000057    -0.000151     0.000321
C      0.409412    -0.410868     0.336749      0.000412     0.000853    -0.001243
O      1.540653     0.381222     0.096305     -0.000121     0.000242    -0.000112
H     -1.741831    -0.373504     0.113662     -0.000184    -0.000375    -0.000023
H     -0.866779     0.398423    -1.213695      0.000562    -0.000084     0.000067
H     -0.999149     1.222645     0.347581      0.000242     0.000050     0.000431
H      0.376606    -0.568612     1.414744     -0.000492     0.000187    -0.000144
H      0.518093    -1.397459    -0.129277     -0.000184    -0.000090     0.000023
H      1.639378     0.499878    -0.836408     -0.000427    -0.000459     0.000526
9
轮次1  Inner Iteration 5, |pred_grad|=0.002102
C     -0.876371     0.248269    -0.129660     -0.000057    -0.000151     0.000321
C      0.409405    -0.410881     0.336769      0.000412     0.000853    -0.001243
O      1.540655     0.381218     0.096307     -0.000121     0.000242    -0.000112
H     -1.741828    -0.373498     0.113663     -0.000184    -0.000375    -0.000023
H     -0.866788     0.398425    -1.213696      0.000562    -0.000084     0.000067
H     -0.999153     1.222644     0.347575      0.000242     0.000050     0.000431
H      0.376614    -0.568615     1.414746     -0.000492     0.000187    -0.000144
H      0.518095    -1.397457    -0.129278     -0.000184    -0.000090     0.000023
H      1.639385     0.499885    -0.836416     -0.000427    -0.000459     0.000526
9
Outer Iteration 20, Energy=-154.0927155013, |grad|=0.002050
C     -0.876370     0.248271    -0.129665     -0.000085    -0.000097     0.000286
C      0.409399    -0.410894     0.336788      0.000376     0.000788    -0.001040
O      1.540657     0.381215     0.096309      0.000227     0.000195    -0.000021
H     -1.741825    -0.373493     0.113663     -0.000164    -0.000400     0.000077
H     -0.866796     0.398426    -1.213697      0.000577    -0.000349     0.000159
H     -0.999156     1.222644     0.347568      0.000341     0.000167     0.000379
H      0.376621    -0.568617     1.414749     -0.000557     0.000184    -0.000294
H      0.518098    -1.397456    -0.129278     -0.000136    -0.000021    -0.000002
H      1.639392     0.499892    -0.836424     -0.000580    -0.000465     0.000455
9
轮次2  Outer Iteration 0, Energy=-154.0927155013, |grad|=0.002050
C     -0.876370     0.248271    -0.129665     -0.000085    -0.000097     0.000286
C      0.409399    -0.410894     0.336788      0.000376     0.000788    -0.001040
O      1.540657     0.381215     0.096309      0.000227     0.000195    -0.000021
H     -1.741825    -0.373493     0.113663     -0.000164    -0.000400     0.000077
H     -0.866796     0.398426    -1.213697      0.000577    -0.000349     0.000159
H     -0.999156     1.222644     0.347568      0.000341     0.000167     0.000379
H      0.376621    -0.568617     1.414749     -0.000557     0.000184    -0.000294
H      0.518098    -1.397456    -0.129278     -0.000136    -0.000021    -0.000002
H      1.639392     0.499892    -0.836424     -0.000580    -0.000465     0.000455
9
轮次2  Outer Iteration 1, Energy=-154.0927142234, |grad|=0.002813
C     -0.876436     0.248252    -0.130768      0.000326     0.000360    -0.000728
C      0.409077    -0.412808     0.338002     -0.000482    -0.000734     0.001620
O      1.540842     0.379521     0.097348     -0.000676    -0.000347     0.000068
H     -1.742893    -0.370236     0.115444      0.000261     0.000264    -0.000076
H     -0.872274     0.397632    -1.215169     -0.000721     0.000447    -0.000133
H     -0.999949     1.223937     0.342878     -0.000302    -0.000154    -0.000339
H      0.380604    -0.572081     1.416196      0.000668    -0.000370     0.000328
H      0.518598    -1.398785    -0.129090      0.000252     0.000009     0.000017
H      1.642450     0.504555    -0.834829      0.000676     0.000524    -0.000758
9
轮次2  Outer Iteration 2, Energy=-154.0927190403, |grad|=0.000651
C     -0.876818     0.248025    -0.130020     -0.000204    -0.000193     0.000232
C      0.409392    -0.411793     0.336729     -0.000029     0.000059    -0.000344
O      1.541662     0.380043     0.097364      0.000322     0.000045     0.000026
H     -1.742994    -0.371416     0.115569     -0.000092     0.000109    -0.000052
H     -0.870479     0.397012    -1.214374      0.000026    -0.000002     0.000021
H     -0.999812     1.223448     0.344570     -0.000056    -0.000042    -0.000048
H      0.378615    -0.570133     1.414821      0.000046     0.000078     0.000006
H      0.518049    -1.398103    -0.129849     -0.000050    -0.000058     0.000047
H      1.642405     0.502905    -0.834797      0.000037     0.000004     0.000112
9
轮次2  Outer Iteration 3, Energy=-154.0927184303, |grad|=0.001308
C     -0.875789     0.248284    -0.130365      0.000401     0.000368    -0.000344
C      0.409237    -0.412598     0.337774      0.000034    -0.000469     0.000738
O      1.540172     0.380337     0.097098     -0.000586     0.000005    -0.000188
H     -1.742031    -0.370926     0.115478      0.000208    -0.000066     0.000068
H     -0.869209     0.396818    -1.214814     -0.000122     0.000081    -0.000073
H     -0.998222     1.223927     0.343995     -0.000048     0.000027    -0.000021
H      0.378346    -0.571411     1.415812      0.000000    -0.000099     0.000077
H      0.518424    -1.398389    -0.129707      0.000052     0.000083    -0.000105
H      1.639090     0.503943    -0.835260      0.000060     0.000073    -0.000153
9
轮次2  Outer Iteration 4, Energy=-154.0927193394, |grad|=0.000171
C     -0.876471     0.248130    -0.130201     -0.000021    -0.000021    -0.000042
C      0.409299    -0.411930     0.337110     -0.000027     0.000100     0.000042
O      1.541147     0.380123     0.097348      0.000001    -0.000062     0.000057
H     -1.742614    -0.371317     0.115608     -0.000010    -0.000017    -0.000002
H     -0.870024     0.396824    -1.214593     -0.000009     0.000002    -0.000006
H     -0.998931     1.223653     0.344397      0.000030    -0.000003     0.000014
H      0.378340    -0.570695     1.415121      0.000019    -0.000026    -0.000010
H      0.518320    -1.398009    -0.129826      0.000024     0.000028     0.000001
H      1.640952     0.503208    -0.834952     -0.000006    -0.000001    -0.000055
