9
初始采样  Outer Iteration 1, Energy=-154.0805970818, |grad|=0.174638
C     -0.930571     0.244541    -0.082635     -0.007619    -0.008832     0.037032
C      0.391997    -0.358206     0.365922     -0.003429    -0.014284    -0.024017
O      1.409971     0.493817    -0.092899     -0.061715     0.051402     0.086895
H     -1.718010    -0.500341    -0.245329      0.004107    -0.008628    -0.019533
H     -0.729886     0.702878    -1.083257      0.013120     0.009305    -0.028682
H     -1.205933     1.053648     0.613024      0.011084     0.014436     0.014200
H      0.472068    -0.344901     1.478138      0.005686     0.015537     0.029465
H      0.549959    -1.379830    -0.015488      0.007186    -0.007726    -0.011004
H      1.760406     0.088393    -0.937475      0.031579    -0.051211    -0.084354
9
初始采样  Outer Iteration 2, Energy=-154.0856581772, |grad|=0.082346
C     -0.937818     0.246500    -0.083569     -0.015868    -0.005246     0.029851
C      0.396307    -0.352683     0.356624     -0.006745    -0.019473    -0.012485
O      1.446083     0.477519    -0.096364     -0.020427     0.026574     0.030051
H     -1.723415    -0.500874    -0.228028      0.003396    -0.004791    -0.017852
H     -0.763392     0.700705    -1.077598      0.007827     0.004538    -0.015245
H     -1.222630     1.052258     0.602123      0.009987     0.008980     0.006634
H      0.478349    -0.343097     1.457381      0.005524     0.014460     0.016668
H      0.537424    -1.373053    -0.021715      0.005071    -0.002900    -0.007954
H      1.789094     0.092724    -0.908855      0.011234    -0.022142    -0.029668
9
初始采样  Outer Iteration 3, Energy=-154.0876402859, |grad|=0.037537
C     -0.934525     0.251723    -0.087622     -0.011860    -0.000721     0.018824
C      0.401381    -0.345729     0.351459     -0.004685    -0.017625     0.000676
O      1.469959     0.462849    -0.094080     -0.005452     0.008744     0.001068
H     -1.714245    -0.503968    -0.202159      0.004030    -0.001865    -0.013242
H     -0.790889     0.703423    -1.076095      0.002718     0.002061    -0.002755
H     -1.243529     1.051516     0.586939      0.006093     0.003645    -0.000186
H      0.477606    -0.352155     1.441297      0.004168     0.010522     0.002616
H      0.519986    -1.366628    -0.022545      0.002033     0.001105    -0.003974
H      1.814257     0.098970    -0.897194      0.002955    -0.005865    -0.003026
9
初始采样  Outer Iteration 4, Energy=-154.0884733628, |grad|=0.023236
C     -0.932496     0.255651    -0.094211     -0.007489    -0.003078     0.011472
C      0.405672    -0.335215     0.344484     -0.003472    -0.007524    -0.000197
O      1.492169     0.454600    -0.085075     -0.002185     0.006094     0.002485
H     -1.710403    -0.507295    -0.175043      0.001424    -0.001199    -0.008559
H     -0.812560     0.704053    -1.085523      0.001718     0.002578    -0.000745
H     -1.256760     1.048863     0.581631      0.002210     0.001313     0.000272
H      0.470439    -0.361684     1.434061      0.003344     0.006601     0.001515
H      0.508427    -1.359292    -0.026585     -0.000357     0.000543    -0.001722
H      1.835512     0.100320    -0.893740      0.004807    -0.005329    -0.004520
9
初始采样  Outer Iteration 5, Energy=-154.0889204296, |grad|=0.019529
C     -0.921604     0.260337    -0.101847      0.000310     0.002246     0.002589
C      0.408807    -0.337707     0.344650      0.001485    -0.006461     0.002727
O      1.490824     0.453421    -0.078789     -0.002623    -0.000328    -0.012687
H     -1.701367    -0.503112    -0.151847      0.002407    -0.001026    -0.004402
H     -0.813992     0.697034    -1.097308      0.000393     0.002915     0.001457
H     -1.251254     1.055032     0.569492     -0.000839    -0.000890     0.000278
H      0.461952    -0.380455     1.432905      0.001969     0.002989    -0.000500
H      0.505641    -1.363367    -0.024636     -0.001747    -0.000276     0.000943
H      1.820994     0.118817    -0.892621     -0.001355     0.000831     0.009594
9
轮次1  Outer Iteration 0, Energy=-154.0889204296, |grad|=0.019529
C     -0.921604     0.260337    -0.101847      0.000310     0.002246     0.002589
C      0.408807    -0.337707     0.344650      0.001485    -0.006461     0.002727
O      1.490824     0.453421    -0.078789     -0.002623    -0.000328    -0.012687
H     -1.701367    -0.503112    -0.151847      0.002407    -0.001026    -0.004402
H     -0.813992     0.697034    -1.097308      0.000393     0.002915     0.001457
H     -1.251254     1.055032     0.569492     -0.000839    -0.000890     0.000278
H      0.461952    -0.380455     1.432905      0.001969     0.002989    -0.000500
H      0.505641    -1.363367    -0.024636     -0.001747    -0.000276     0.000943
H      1.820994     0.118817    -0.892621     -0.001355     0.000831     0.009594
9
轮次1  Outer Iteration 1, Energy=-154.0892378163, |grad|=0.014127
C     -0.927425     0.259113    -0.103670     -0.004029    -0.002959     0.002620
C      0.408834    -0.331287     0.337865     -0.001459     0.002168    -0.001076
O      1.511574     0.446454    -0.062158     -0.000559     0.003218     0.003672
H     -1.712763    -0.500910    -0.129967     -0.000922    -0.000020    -0.003566
H     -0.830993     0.682214    -1.106255      0.001532     0.002100     0.001470
H     -1.248303     1.059496     0.565510     -0.001036    -0.002075     0.001654
H      0.453727    -0.386060     1.426458      0.001999     0.002443    -0.000023
H      0.504821    -1.355508    -0.036219     -0.001477    -0.000053     0.001008
H      1.840528     0.126487    -0.891563      0.005949    -0.004822    -0.005759
9
轮次1  Outer Iteration 2, Energy=-154.0896617628, |grad|=0.008845
C     -0.919865     0.260177    -0.107034     -0.000962     0.000168     0.000132
C      0.409085    -0.339230     0.340548      0.000778    -0.000669     0.000412
O      1.505706     0.447650    -0.051941     -0.002653     0.002587    -0.002159
H     -1.710701    -0.494190    -0.113327      0.000474    -0.000367    -0.002543
H     -0.826760     0.666146    -1.117272      0.000965     0.002657     0.000947
H     -1.230755     1.073232     0.551783     -0.001650    -0.002088     0.001809
H      0.447557    -0.403586     1.429023      0.001645     0.001305     0.000252
H      0.506413    -1.361709    -0.038788     -0.001859    -0.000597     0.001801
H      1.819320     0.151510    -0.892992      0.003263    -0.002996    -0.000652
9
轮次1  Outer Iteration 3, Energy=-154.0900114903, |grad|=0.010026
C     -0.916295     0.259463    -0.108082     -0.000034     0.000608     0.000217
C      0.408737    -0.344417     0.340450      0.001060    -0.000647    -0.000280
O      1.506107     0.445407    -0.039525     -0.002184     0.000865    -0.006033
H     -1.713329    -0.488521    -0.097134      0.000526    -0.000693    -0.002545
H     -0.826937     0.647611    -1.125414      0.000968     0.002406     0.001370
H     -1.214463     1.086578     0.539054     -0.001577    -0.001768     0.001685
H      0.442295    -0.415428     1.428449      0.001698     0.001714     0.000050
H      0.508047    -1.364147    -0.046640     -0.001673    -0.000774     0.001477
H      1.805839     0.173455    -0.891158      0.001214    -0.001712     0.004058
9
轮次1  Outer Iteration 4, Energy=-154.0903494621, |grad|=0.008927
C     -0.912676     0.258804    -0.109474      0.000623     0.000936     0.000111
C      0.408266    -0.349880     0.341734      0.000841    -0.001347     0.000893
O      1.506899     0.443399    -0.027206     -0.003621     0.002144    -0.003571
H     -1.715730    -0.482226    -0.081273      0.000751    -0.000803    -0.002456
H     -0.827808     0.629545    -1.134009      0.000713     0.002477     0.001036
H     -1.198352     1.099080     0.526153     -0.001443    -0.001648     0.001596
H      0.436300    -0.428669     1.429313      0.001470     0.001452     0.000157
H      0.508722    -1.366784    -0.052829     -0.001758    -0.000786     0.001308
H      1.794378     0.196730    -0.892408      0.002424    -0.002425     0.000925
9
轮次1  Outer Iteration 5, Energy=-154.0906751851, |grad|=0.008385
C     -0.910661     0.258008    -0.110866     -0.000137     0.000392     0.000435
C      0.408227    -0.353864     0.341195      0.000513    -0.001144     0.000253
O      1.510993     0.439896    -0.014600     -0.002056     0.002103    -0.004200
H     -1.719543    -0.475678    -0.064691      0.000523    -0.000596    -0.002316
H     -0.831045     0.611367    -1.142346      0.000779     0.002385     0.000698
H     -1.184048     1.110673     0.513488     -0.001383    -0.001619     0.001558
H      0.431625    -0.440596     1.428190      0.001627     0.001324     0.000103
H      0.509777    -1.368067    -0.059916     -0.001696    -0.000600     0.001388
H      1.784675     0.218263    -0.890455      0.001830    -0.002245     0.002081
9
轮次1  Outer Iteration 6, Energy=-154.0909833025, |grad|=0.007451
C     -0.907741     0.257219    -0.111980      0.000121     0.000397     0.000497
C      0.407889    -0.358481     0.341181      0.000518    -0.000529     0.000023
O      1.512999     0.435980    -0.002621     -0.002846     0.001814    -0.002682
H     -1.722237    -0.469128    -0.048742      0.000411    -0.000777    -0.002187
H     -0.832375     0.592928    -1.149546      0.000908     0.002070     0.000968
H     -1.168457     1.122315     0.500665     -0.001246    -0.001375     0.001528
H      0.425538    -0.451877     1.427632      0.001365     0.001460     0.000063
H      0.511096    -1.369950    -0.067041     -0.001388    -0.000612     0.001008
H      1.773287     0.240995    -0.889547      0.002157    -0.002449     0.000783
9
轮次1  Outer Iteration 7, Energy=-154.0912724910, |grad|=0.007293
C     -0.904894     0.256292    -0.113735     -0.000120     0.000103     0.000371
C      0.408000    -0.363411     0.341492      0.000317    -0.000889     0.000488
O      1.516155     0.432232     0.008980     -0.001808     0.002263    -0.003266
H     -1.725260    -0.461541    -0.033032      0.000354    -0.000592    -0.002115
H     -0.835825     0.574723    -1.157581      0.000570     0.002099     0.000577
H     -1.152768     1.133411     0.486851     -0.001063    -0.001357     0.001366
H      0.421429    -0.464334     1.427337      0.001497     0.001097     0.000195
H      0.510958    -1.372462    -0.072877     -0.001694    -0.000569     0.001067
H      1.762206     0.265090    -0.887435      0.001945    -0.002157     0.001316
9
轮次1  Outer Iteration 8, Energy=-154.0915405960, |grad|=0.006401
C     -0.901935     0.255927    -0.114853     -0.000123     0.000483     0.000788
C      0.407833    -0.368265     0.341116      0.000514    -0.000728    -0.000388
O      1.518014     0.427723     0.020185     -0.002504     0.001826    -0.001759
H     -1.727379    -0.453928    -0.017071      0.000396    -0.000664    -0.001762
H     -0.836684     0.556572    -1.164338      0.000936     0.001799     0.000537
H     -1.137944     1.144616     0.473586     -0.001228    -0.001041     0.001310
H      0.415531    -0.475678     1.426196      0.001216     0.001209    -0.000048
H      0.513645    -1.374562    -0.079477     -0.000970    -0.000471     0.000925
H      1.748919     0.287594    -0.885345      0.001763    -0.002413     0.000396
9
轮次1  Outer Iteration 9, Energy=-154.0917856871, |grad|=0.006214
C     -0.898745     0.254494    -0.116820      0.000163    -0.000091     0.000102
C      0.407856    -0.373054     0.341458      0.000241    -0.000320     0.000601
O      1.520913     0.423296     0.030616     -0.001697     0.001924    -0.002913
H     -1.729942    -0.446118    -0.001697      0.000180    -0.000691    -0.001748
H     -0.840374     0.537774    -1.171491      0.000539     0.001635     0.000654
H     -1.120420     1.154504     0.459632     -0.000639    -0.001111     0.001265
H      0.410711    -0.487060     1.425997      0.001050     0.000921     0.000269
H      0.512177    -1.376996    -0.085515     -0.001575    -0.000428     0.000637
H      1.737824     0.313160    -0.882181      0.001737    -0.001839     0.001133
9
轮次1  Inner Iteration 1, |pred_grad|=0.006204
C     -0.898745     0.254494    -0.116820      0.000133    -0.000068     0.000228
C      0.407856    -0.373054     0.341458      0.000241    -0.000320     0.000528
O      1.520913     0.423296     0.030616     -0.001750     0.001903    -0.002831
H     -1.729942    -0.446118    -0.001697      0.000180    -0.000692    -0.001748
H     -0.840374     0.537774    -1.171491      0.000572     0.001664     0.000650
H     -1.120420     1.154504     0.459632     -0.000723    -0.001109     0.001265
H      0.410711    -0.487060     1.425997      0.001116     0.000992     0.000234
H      0.512177    -1.376996    -0.085515     -0.001538    -0.000429     0.000675
H      1.737824     0.313160    -0.882181      0.001739    -0.001839     0.001070
9
轮次1  Inner Iteration 2, |pred_grad|=0.006206
C     -0.898750     0.254496    -0.116828      0.000134    -0.000070     0.000227
C      0.407848    -0.373043     0.341439      0.000240    -0.000319     0.000531
O      1.520976     0.423227     0.030718     -0.001747     0.001903    -0.002835
H     -1.729948    -0.446093    -0.001634      0.000179    -0.000692    -0.001748
H     -0.840395     0.537714    -1.171514      0.000571     0.001663     0.000651
H     -1.120393     1.154544     0.459586     -0.000722    -0.001110     0.001265
H      0.410671    -0.487095     1.425989      0.001116     0.000992     0.000235
H      0.512232    -1.376981    -0.085539     -0.001541    -0.000429     0.000675
H      1.737762     0.313227    -0.882219      0.001739    -0.001837     0.001072
9
轮次1  Inner Iteration 3, |pred_grad|=0.006208
C     -0.898755     0.254499    -0.116836      0.000134    -0.000073     0.000225
C      0.407839    -0.373031     0.341420      0.000239    -0.000318     0.000535
O      1.521039     0.423159     0.030820     -0.001744     0.001903    -0.002840
H     -1.729955    -0.446068    -0.001571      0.000178    -0.000692    -0.001749
H     -0.840416     0.537654    -1.171537      0.000570     0.001663     0.000651
H     -1.120367     1.154584     0.459540     -0.000721    -0.001111     0.001265
H      0.410630    -0.487131     1.425980      0.001115     0.000992     0.000236
H      0.512288    -1.376965    -0.085563     -0.001543    -0.000429     0.000674
H      1.737699     0.313293    -0.882258      0.001739    -0.001835     0.001075
9
轮次1  Inner Iteration 4, |pred_grad|=0.006210
C     -0.898760     0.254501    -0.116844      0.000135    -0.000075     0.000224
C      0.407830    -0.373020     0.341401      0.000238    -0.000316     0.000538
O      1.521102     0.423090     0.030922     -0.001742     0.001904    -0.002844
H     -1.729961    -0.446043    -0.001508      0.000178    -0.000692    -0.001749
H     -0.840436     0.537594    -1.171561      0.000568     0.001663     0.000652
H     -1.120341     1.154624     0.459495     -0.000719    -0.001111     0.001265
H      0.410590    -0.487167     1.425972      0.001115     0.000992     0.000237
H      0.512343    -1.376950    -0.085588     -0.001545    -0.000429     0.000674
H      1.737636     0.313359    -0.882296      0.001739    -0.001832     0.001077
9
轮次1  Inner Iteration 5, |pred_grad|=0.006212
C     -0.898764     0.254504    -0.116852      0.000135    -0.000077     0.000223
C      0.407822    -0.373009     0.341381      0.000237    -0.000315     0.000541
O      1.521165     0.423021     0.031025     -0.001739     0.001904    -0.002849
H     -1.729968    -0.446018    -0.001445      0.000177    -0.000692    -0.001750
H     -0.840457     0.537534    -1.171584      0.000567     0.001663     0.000652
H     -1.120316     1.154665     0.459449     -0.000718    -0.001112     0.001265
H      0.410550    -0.487203     1.425963      0.001115     0.000991     0.000238
H      0.512399    -1.376934    -0.085612     -0.001548    -0.000429     0.000673
H      1.737574     0.313425    -0.882335      0.001739    -0.001830     0.001080
9
初始采样  Outer Iteration 20, Energy=-154.0917922961, |grad|=0.005769
C     -0.898769     0.254507    -0.116860      0.000086    -0.000192     0.000136
C      0.407813    -0.372997     0.341362      0.000155    -0.000069     0.000278
O      1.521227     0.422953     0.031127     -0.001869     0.001926    -0.001792
H     -1.729974    -0.445993    -0.001382      0.000187    -0.000662    -0.001736
H     -0.840477     0.537474    -1.171608      0.000572     0.001615     0.000678
H     -1.120290     1.154705     0.459404     -0.000648    -0.001086     0.001283
H      0.410510    -0.487238     1.425955      0.001084     0.000918     0.000351
H      0.512455    -1.376919    -0.085636     -0.001465    -0.000437     0.000641
H      1.737511     0.313491    -0.882374      0.001897    -0.002013     0.000161
9
轮次2  Outer Iteration 0, Energy=-154.0917922961, |grad|=0.005769
C     -0.898769     0.254507    -0.116860      0.000086    -0.000192     0.000136
C      0.407813    -0.372997     0.341362      0.000155    -0.000069     0.000278
O      1.521227     0.422953     0.031127     -0.001869     0.001926    -0.001792
H     -1.729974    -0.445993    -0.001382      0.000187    -0.000662    -0.001736
H     -0.840477     0.537474    -1.171608      0.000572     0.001615     0.000678
H     -1.120290     1.154705     0.459404     -0.000648    -0.001086     0.001283
H      0.410510    -0.487238     1.425955      0.001084     0.000918     0.000351
H      0.512455    -1.376919    -0.085636     -0.001465    -0.000437     0.000641
H      1.737511     0.313491    -0.882374      0.001897    -0.002013     0.000161
9
轮次2  Outer Iteration 1, Energy=-154.0920109582, |grad|=0.005910
C     -0.895764     0.254416    -0.118040     -0.000211     0.000855     0.000432
C      0.408131    -0.379024     0.341133      0.000713    -0.001519    -0.000175
O      1.522862     0.418394     0.041104     -0.001805     0.001865    -0.002542
H     -1.732310    -0.436469     0.014560      0.000325    -0.000501    -0.001306
H     -0.841841     0.519211    -1.177947      0.000766     0.001477     0.000550
H     -1.106365     1.166161     0.444162     -0.001260    -0.000686     0.000867
H      0.406651    -0.499878     1.424745      0.001034     0.000796     0.000020
H      0.515128    -1.380353    -0.091306     -0.000809    -0.000423     0.000861
H      1.723513     0.337524    -0.878425      0.001246    -0.001865     0.001292
9
轮次2  Outer Iteration 2, Energy=-154.0922011901, |grad|=0.004496
C     -0.893666     0.252535    -0.120129     -0.000663    -0.000866     0.000215
C      0.408074    -0.382126     0.340698      0.000092     0.000569     0.000354
O      1.527725     0.412707     0.051647     -0.000730     0.001578    -0.000473
H     -1.735126    -0.428884     0.030031     -0.000168    -0.000457    -0.001378
H     -0.847698     0.500229    -1.184819      0.000516     0.001213     0.000227
H     -1.088819     1.174194     0.431096     -0.000188    -0.000975     0.001140
H      0.401360    -0.509476     1.423563      0.000882     0.000655     0.000165
H      0.513500    -1.380851    -0.098213     -0.001361    -0.000047     0.000396
H      1.714656     0.361654    -0.873887      0.001619    -0.001669    -0.000645
9
轮次2  Outer Iteration 3, Energy=-154.0923648866, |grad|=0.004788
C     -0.888533     0.252514    -0.122042      0.001006     0.000720    -0.000079
C      0.407909    -0.389394     0.341059      0.000271    -0.000967     0.000661
O      1.526460     0.408338     0.060296     -0.002609     0.001527    -0.001033
H     -1.734456    -0.419154     0.044796      0.000621    -0.000709    -0.000996
H     -0.848841     0.482624    -1.190991      0.000178     0.001146     0.000209
H     -1.071055     1.184812     0.415699     -0.000452    -0.000479     0.000816
H      0.396416    -0.521516     1.423314      0.000698     0.000616     0.000242
H      0.515355    -1.386148    -0.102751     -0.000893    -0.000458     0.000289
H      1.696750     0.387906    -0.869393      0.001179    -0.001397    -0.000108
9
轮次2  Outer Iteration 4, Energy=-154.0924954738, |grad|=0.004494
C     -0.888216     0.251733    -0.122592     -0.000769    -0.000067     0.001370
C      0.408556    -0.392737     0.338313     -0.000062     0.000206    -0.001924
O      1.533436     0.400727     0.069702      0.000200     0.000760    -0.001753
H     -1.739153    -0.409228     0.061210     -0.000280    -0.000124    -0.000856
H     -0.854602     0.463801    -1.195458      0.000740     0.000656     0.000470
H     -1.060535     1.194253     0.400599     -0.000956    -0.000273     0.000383
H      0.393183    -0.531306     1.419471      0.000676     0.000680    -0.000194
H      0.517851    -1.387551    -0.109425      0.000047    -0.000473     0.000628
H      1.689485     0.410291    -0.861834      0.000404    -0.001365     0.001876
9
轮次2  Outer Iteration 5, Energy=-154.0926024521, |grad|=0.002946
C     -0.883714     0.250355    -0.125412     -0.000109    -0.000067    -0.000298
C      0.408800    -0.398572     0.340531      0.000278    -0.000583     0.001285
O      1.534267     0.396307     0.077216     -0.000555     0.001189    -0.000257
H     -1.739557    -0.399217     0.075094     -0.000006    -0.000203    -0.000532
H     -0.856511     0.445440    -1.202076      0.000181     0.000742    -0.000134
H     -1.041295     1.202042     0.385451     -0.000263    -0.000489     0.000491
H      0.389074    -0.543956     1.420825      0.000350    -0.000108     0.000146
H      0.515670    -1.390200    -0.114151     -0.000840     0.000188     0.000253
H      1.673272     0.437783    -0.857491      0.000963    -0.000668    -0.000954
9
轮次2  Outer Iteration 6, Energy=-154.0926727903, |grad|=0.002345
C     -0.880850     0.249555    -0.127367      0.000170     0.000085     0.000231
C      0.408571    -0.403874     0.337794      0.000100     0.000058    -0.001079
O      1.535985     0.390085     0.086394     -0.001050     0.000340     0.000636
H     -1.739992    -0.389731     0.090929      0.000206    -0.000420    -0.000406
H     -0.862404     0.426834    -1.207180      0.000175     0.000279     0.000103
H     -1.023324     1.210544     0.370668      0.000103    -0.000111     0.000451
H      0.384448    -0.551581     1.417550      0.000595     0.000826    -0.000018
H      0.517146    -1.394051    -0.120683     -0.000374    -0.000266     0.000023
H      1.660424     0.462199    -0.848117      0.000074    -0.000791     0.000059
9
轮次2  Outer Iteration 7, Energy=-154.0927087423, |grad|=0.002948
C     -0.878286     0.248953    -0.128337      0.000045     0.000070     0.000441
C      0.409271    -0.408377     0.338414     -0.000293     0.000258     0.001152
O      1.540406     0.383254     0.091255      0.000215     0.000057    -0.002212
H     -1.742041    -0.378345     0.105628     -0.000034     0.000057    -0.000238
H     -0.866388     0.408807    -1.210972      0.000051     0.000171     0.000178
H     -1.011282     1.219153     0.354168     -0.000398    -0.000024    -0.000128
H      0.379436    -0.564988     1.416879     -0.000629    -0.000553     0.000063
H      0.518994    -1.396059    -0.125209      0.000444    -0.000133     0.000054
H      1.649895     0.487584    -0.841840      0.000599     0.000097     0.000691
9
轮次2  Outer Iteration 8, Energy=-154.0927161627, |grad|=0.002373
C     -0.875826     0.247652    -0.131097     -0.000022    -0.000128    -0.000428
C      0.409692    -0.413165     0.336922      0.000258    -0.000456    -0.000713
O      1.541631     0.379627     0.099471      0.000306     0.000398     0.001635
H     -1.743235    -0.368629     0.118279     -0.000149     0.000193     0.000180
H     -0.870765     0.393298    -1.216080     -0.000085     0.000129    -0.000224
H     -0.996302     1.224729     0.340662     -0.000094    -0.000139    -0.000045
H      0.380130    -0.572589     1.414856      0.000717     0.000040    -0.000024
H      0.517144    -1.399142    -0.130210     -0.000563     0.000071     0.000293
H      1.637538     0.508201    -0.832816     -0.000368    -0.000110    -0.000673
9
轮次2  Outer Iteration 9, Energy=-154.0927190386, |grad|=0.000498
C     -0.876377     0.248011    -0.130157     -0.000044     0.000023     0.000109
C      0.409213    -0.412069     0.337098     -0.000000     0.000062     0.000042
O      1.540896     0.380080     0.097448     -0.000166    -0.000185    -0.000044
H     -1.742474    -0.371239     0.116320      0.000035    -0.000102     0.000005
H     -0.869782     0.395546    -1.214705      0.000114    -0.000114    -0.000010
H     -0.997974     1.223947     0.343916      0.000121     0.000066     0.000091
H      0.377549    -0.570343     1.415145     -0.000165     0.000150    -0.000003
H      0.518593    -1.397891    -0.130310      0.000104     0.000087    -0.000176
H      1.640362     0.503940    -0.834767      0.000001     0.000015    -0.000013
9
轮次2  Inner Iteration 1, |pred_grad|=0.000408
C     -0.876377     0.248011    -0.130157     -0.000031    -0.000028    -0.000045
C      0.409213    -0.412069     0.337098      0.000052    -0.000102    -0.000049
O      1.540896     0.380080     0.097448      0.000087     0.000108     0.000253
H     -1.742474    -0.371239     0.116320     -0.000047     0.000052     0.000017
H     -0.869782     0.395546    -1.214705      0.000024     0.000036    -0.000066
H     -0.997974     1.223947     0.343916     -0.000035    -0.000033     0.000015
H      0.377549    -0.570343     1.415145      0.000082    -0.000006    -0.000001
H      0.518593    -1.397891    -0.130310     -0.000093     0.000060     0.000060
H      1.640362     0.503940    -0.834767     -0.000001    -0.000041    -0.000161
9
轮次2  Inner Iteration 2, |pred_grad|=0.000408
C     -0.876376     0.248011    -0.130157     -0.000031    -0.000028    -0.000045
C      0.409213    -0.412068     0.337098      0.000052    -0.000102    -0.000049
O      1.540895     0.380079     0.097446      0.000087     0.000108     0.000252
H     -1.742474    -0.371239     0.116320     -0.000047     0.000052     0.000017
H     -0.869782     0.395545    -1.214705      0.000024     0.000036    -0.000066
H     -0.997974     1.223947     0.343916     -0.000035    -0.000033     0.000015
H      0.377548    -0.570343     1.415145      0.000082    -0.000006    -0.000001
H      0.518593    -1.397892    -0.130311     -0.000093     0.000060     0.000060
H      1.640362     0.503940    -0.834766     -0.000001    -0.000041    -0.000161
9
轮次2  Inner Iteration 3, |pred_grad|=0.000408
C     -0.876376     0.248011    -0.130156     -0.000031    -0.000028    -0.000045
C      0.409212    -0.412067     0.337098      0.000052    -0.000102    -0.000049
O      1.540895     0.380078     0.097444      0.000087     0.000108     0.000252
H     -1.742474    -0.371240     0.116320     -0.000047     0.000052     0.000017
H     -0.869782     0.395545    -1.214705      0.000024     0.000036    -0.000066
H     -0.997973     1.223948     0.343916     -0.000035    -0.000033     0.000015
H      0.377548    -0.570343     1.415145      0.000082    -0.000006    -0.000001
H      0.518594    -1.397892    -0.130311     -0.000093     0.000060     0.000060
H      1.640362     0.503941    -0.834764     -0.000001    -0.000041    -0.000161
9
轮次2  Inner Iteration 4, |pred_grad|=0.000408
C     -0.876376     0.248011    -0.130156     -0.000031    -0.000028    -0.000045
C      0.409212    -0.412067     0.337099      0.000052    -0.000102    -0.000049
O      1.540894     0.380078     0.097442      0.000087     0.000108     0.000252
H     -1.742473    -0.371240     0.116320     -0.000047     0.000052     0.000017
H     -0.869782     0.395545    -1.214704      0.000024     0.000036    -0.000066
H     -0.997973     1.223948     0.343915     -0.000035    -0.000033     0.000015
H      0.377547    -0.570343     1.415145      0.000082    -0.000006    -0.000001
H      0.518595    -1.397892    -0.130311     -0.000093     0.000060     0.000060
H      1.640362     0.503941    -0.834763     -0.000001    -0.000041    -0.000161
9
轮次2  Inner Iteration 5, |pred_grad|=0.000408
C     -0.876376     0.248012    -0.130156     -0.000031    -0.000028    -0.000045
C      0.409212    -0.412066     0.337099      0.000052    -0.000102    -0.000049
O      1.540894     0.380077     0.097441      0.000087     0.000108     0.000252
H     -1.742473    -0.371241     0.116320     -0.000047     0.000052     0.000017
H     -0.869782     0.395545    -1.214704      0.000024     0.000036    -0.000066
H     -0.997973     1.223948     0.343915     -0.000035    -0.000033     0.000015
H      0.377547    -0.570343     1.415145      0.000082    -0.000006    -0.000001
H      0.518595    -1.397893    -0.130312     -0.000093     0.000060     0.000060
H      1.640362     0.503941    -0.834762     -0.000001    -0.000041    -0.000161
9
初始采样  Outer Iteration 36, Energy=-154.0927190386, |grad|=0.000498
C     -0.876377     0.248011    -0.130157     -0.000044     0.000023     0.000109
C      0.409213    -0.412069     0.337098     -0.000000     0.000062     0.000042
O      1.540896     0.380080     0.097448     -0.000166    -0.000185    -0.000044
H     -1.742474    -0.371239     0.116320      0.000035    -0.000102     0.000005
H     -0.869782     0.395546    -1.214705      0.000114    -0.000114    -0.000010
H     -0.997974     1.223947     0.343916      0.000121     0.000066     0.000091
H      0.377549    -0.570343     1.415145     -0.000165     0.000150    -0.000003
H      0.518593    -1.397891    -0.130310      0.000104     0.000087    -0.000176
H      1.640362     0.503940    -0.834767      0.000001     0.000015    -0.000013
9
轮次3  Outer Iteration 0, Energy=-154.0927190386, |grad|=0.000498
C     -0.876377     0.248011    -0.130157     -0.000044     0.000023     0.000109
C      0.409213    -0.412069     0.337098     -0.000000     0.000062     0.000042
O      1.540896     0.380080     0.097448     -0.000166    -0.000185    -0.000044
H     -1.742474    -0.371239     0.116320      0.000035    -0.000102     0.000005