12
Iteration 0, Energy=-230.2133220033, |grad|=2.231212
C      0.760242    -0.919880     0.110593      0.171624     0.747742    -0.040957
C      1.447764     0.005397    -0.142460      0.294925    -0.504854     0.041949
C      0.405207     1.397475     0.017681     -0.519451     0.052217     0.076236
C     -0.706575     0.907767     0.170143      0.340386    -0.423163     0.086222
C     -1.276504    -0.242150    -0.122689      0.447674     0.036104     0.006008
C     -0.700492    -1.319784     0.032485     -0.579047    -1.042663     0.142156
H      1.377359    -2.106887     0.077609      0.048252    -0.132308    -0.019481
H      2.320852     0.155641    -0.061750     -0.472594    -0.058420    -0.014650
H      1.003808     2.362847    -0.161013      0.083189     0.051316    -0.031908
H     -1.396750     2.049507    -0.214107     -0.025908     0.138619    -0.075923
H     -2.437288    -0.396018    -0.165209     -0.074649    -0.053628     0.009194
H     -0.856273    -2.051038     0.164068      0.285598     1.189038    -0.178845
12
Iteration 1, Energy=-230.3984659988, |grad|=1.349056
C      0.758325    -0.946514     0.116133      0.048607     0.557074     0.004532
C      1.463667     0.031122    -0.145733      0.276660    -0.362790    -0.013681
C      0.427702     1.419068     0.010785     -0.408139     0.120059     0.062125
C     -0.726090     0.941260     0.172315      0.252835    -0.400459     0.110641
C     -1.306278    -0.229412    -0.128266      0.346048     0.079552    -0.020849
C     -0.701906    -1.333652     0.029726     -0.368548    -0.446129     0.034805
H      1.376704    -2.116343     0.081469      0.048854    -0.135916    -0.019558
H      2.383194     0.192713    -0.062509     -0.307322    -0.027854    -0.003591
H      1.023088     2.374828    -0.170181      0.079389     0.042078    -0.030925
H     -1.411968     2.070368    -0.201327     -0.030831     0.140832    -0.075388
H     -2.459259    -0.377540    -0.175354     -0.072808    -0.049838     0.007927
H     -0.885828    -2.183020     0.178295      0.135256     0.483390    -0.056038
12
Iteration 2, Energy=-230.5017719388, |grad|=1.021445
C      0.765593    -0.991638     0.126754     -0.016432     0.399579     0.037233
C      1.466128     0.048097    -0.143216      0.219992    -0.274757    -0.051051
C      0.454050     1.418060    -0.002324     -0.290237     0.182202     0.044491
C     -0.759180     0.985698     0.176112      0.173089    -0.342346     0.138240
C     -1.348054    -0.218226    -0.132886      0.213323     0.100555    -0.051852
C     -0.691111    -1.344690     0.026996     -0.267394    -0.376599     0.019449
H      1.386489    -2.115504     0.090934      0.050714    -0.130633    -0.020464
H      2.442839     0.222605    -0.060300     -0.154810    -0.001764     0.006952
H      1.037722     2.355497    -0.190355      0.066591     0.022441    -0.028357
H     -1.437931     2.076437    -0.172611     -0.038724     0.137879    -0.073258
H     -2.481282    -0.357285    -0.187907     -0.060816    -0.040672     0.005914
H     -0.893914    -2.236173     0.174156      0.104704     0.324115    -0.027298
12
Iteration 3, Energy=-230.5748261956, |grad|=0.775105
C      0.772653    -1.017304     0.132960     -0.030981     0.315817     0.049901
C      1.450765     0.064309    -0.137485      0.184498    -0.239698    -0.062461
C      0.473483     1.395990    -0.014843     -0.236600     0.196505     0.033280
C     -0.775504     1.018403     0.173611      0.142336    -0.287475     0.147387
C     -1.363475    -0.205309    -0.134123      0.147700     0.080194    -0.064390
C     -0.672730    -1.330361     0.022600     -0.190324    -0.194197    -0.007796
H      1.388191    -2.084955     0.097848      0.045882    -0.112971    -0.021173
H      2.455824     0.242698    -0.056936     -0.096865     0.006896     0.011257
H      1.038572     2.322998    -0.206816      0.052047     0.004726    -0.025059
H     -1.439988     2.057426    -0.145648     -0.039080     0.124009    -0.068516
H     -2.475482    -0.334476    -0.195098     -0.041328    -0.031585     0.005234
H     -0.910959    -2.286542     0.169284      0.062715     0.137779     0.002336
12
Iteration 4, Energy=-230.6282611135, |grad|=0.596381
C      0.780323    -1.047587     0.137625     -0.033796     0.216220     0.061548
C      1.432970     0.084313    -0.129611      0.153132    -0.187663    -0.071527
C      0.495195     1.366619    -0.028239     -0.178075     0.191655     0.020930
C     -0.792071     1.046758     0.165480      0.101497    -0.218875     0.149947
C     -1.378892    -0.194750    -0.131742      0.085066     0.063293    -0.074179
C     -0.653613    -1.322743     0.020390     -0.138858    -0.132823    -0.014406
H      1.390956    -2.056560     0.104279      0.034970    -0.085363    -0.021004
H      2.464128     0.265591    -0.051525     -0.051361     0.012997     0.014585
H      1.041040     2.292119    -0.221460      0.040213    -0.006136    -0.022009
H     -1.437911     2.030646    -0.121156     -0.032430     0.098696    -0.059645
H     -2.475656    -0.314099    -0.196820     -0.025417    -0.022496     0.004573
H     -0.925120    -2.307429     0.158131      0.045058     0.070496     0.011188
12
Iteration 5, Energy=-230.6672500680, |grad|=0.430052
C      0.787101    -1.067619     0.137102     -0.016807     0.144490     0.063239
C      1.405647     0.102969    -0.118839      0.100926    -0.145390    -0.070717
C      0.513973     1.326747    -0.040481     -0.129115     0.151724     0.011148
C     -0.802321     1.067718     0.150051      0.068512    -0.143615     0.140814
C     -1.384320    -0.184495    -0.125401      0.049314     0.038919    -0.076207
C     -0.630551    -1.308019     0.019437     -0.096697    -0.070149    -0.018445
H      1.395776    -2.022664     0.106634      0.018827    -0.050506    -0.020190
H      2.455782     0.280563    -0.043310     -0.023920     0.014725     0.017347
H      1.038003     2.257753    -0.230528      0.029575    -0.011682    -0.019133
H     -1.428702     1.999931    -0.103289     -0.017151     0.061176    -0.047265
H     -2.470288    -0.296485    -0.191966     -0.012737    -0.014311     0.004085
H     -0.938750    -2.313522     0.145944      0.029273     0.024620     0.015324
12
Iteration 6, Energy=-230.6927819667, |grad|=0.267018
C      0.795454    -1.090277     0.130107     -0.001058     0.074275     0.060775
C      1.383601     0.122498    -0.104125      0.052007    -0.077136    -0.065655
C      0.533253     1.289235    -0.051744     -0.071301     0.085624     0.002866
C     -0.810868     1.085174     0.121865      0.035123    -0.068976     0.122428
C     -1.385632    -0.174960    -0.112540      0.025604     0.016051    -0.070854
C     -0.606476    -1.296446     0.020697     -0.063046    -0.029881    -0.018022
H      1.408818    -2.005483     0.104776      0.004962    -0.022122    -0.018112
H      2.444196     0.287871    -0.032288     -0.012372     0.012241     0.018508
H      1.028418     2.235654    -0.230296      0.019569    -0.010274    -0.016103
H     -1.427610     1.978872    -0.097770     -0.001805     0.023792    -0.033940
H     -2.465753    -0.282236    -0.175787     -0.005377    -0.007185     0.003350
H     -0.956049    -2.307024     0.132458      0.017694     0.003592     0.014759
12
Iteration 7, Energy=-230.7073795650, |grad|=0.163141
C      0.805035    -1.110612     0.112224      0.002397     0.035062     0.049208
C      1.375030     0.128794    -0.083454      0.016667    -0.036278    -0.053245
C      0.544935     1.266320    -0.060849     -0.029980     0.033597    -0.000897
C     -0.819963     1.098984     0.075721      0.012862    -0.029084     0.095620
C     -1.383702    -0.165927    -0.092329      0.013598     0.008595    -0.056135
C     -0.582611    -1.285954     0.024043     -0.028342    -0.009261    -0.014157
H      1.428702    -2.004084     0.096389      0.000803    -0.009050    -0.014925
H      2.443781     0.270997    -0.017601     -0.005200     0.006210     0.017139
H      1.007843     2.232472    -0.215961      0.009067    -0.005335    -0.012348
H     -1.444908     1.975834    -0.108820      0.000039     0.008241    -0.024420
H     -2.461150    -0.274977    -0.144869     -0.002059    -0.001951     0.002419
H     -0.971642    -2.288970     0.120860      0.010146    -0.000745     0.011739
12
Iteration 8, Energy=-230.7157329429, |grad|=0.104280
C      0.808254    -1.120970     0.087258     -0.000761     0.013759     0.034035
C      1.378599     0.134870    -0.060990      0.014621    -0.013845    -0.037766
C      0.553392     1.264793    -0.068237     -0.013048     0.020556    -0.000725
C     -0.820570     1.102890     0.019345      0.006266    -0.013169     0.064601
C     -1.385283    -0.167088    -0.070126      0.005813     0.001198    -0.037325
C     -0.576547    -1.286785     0.028015     -0.017910    -0.008227    -0.009801
H      1.439750    -2.004392     0.086954      0.000237    -0.004643    -0.010657
H      2.450038     0.261813    -0.004972     -0.003764     0.003194     0.012911
H      0.999455     2.243466    -0.191542      0.004300    -0.002006    -0.008641
H     -1.451825     1.975438    -0.127101      0.000649     0.003614    -0.016323
H     -2.462046    -0.280990    -0.106285     -0.001189    -0.001756     0.001485
H     -0.991867    -2.280166     0.113035      0.004785     0.001325     0.008206
12
Iteration 9, Energy=-230.7204830673, |grad|=0.053536
C      0.815574    -1.129911     0.067382     -0.000954     0.008608     0.018133
C      1.373156     0.132386    -0.038945     -0.002865    -0.008411    -0.020115
C      0.550597     1.251166    -0.075757     -0.007039    -0.002757     0.000099
C     -0.828627     1.109218    -0.034330      0.000388    -0.004294     0.033992
C     -1.384727    -0.160215    -0.051924      0.002621     0.006336    -0.020136
C     -0.562766    -1.278645     0.032307      0.004645    -0.000286    -0.005180
H      1.454695    -2.005674     0.087723      0.001869    -0.002346    -0.006168
H      2.448457     0.253444    -0.004013      0.000265    -0.000093     0.007524
H      0.994802     2.233659    -0.165185      0.001106    -0.001745    -0.004651
H     -1.465090     1.981936    -0.138950     -0.001906     0.002618    -0.008769
H     -2.460814    -0.276791    -0.073283     -0.000555     0.001161     0.000802
H     -0.993906    -2.267697     0.100328      0.002425     0.001208     0.004469
12
Iteration 10, Energy=-230.7217528930, |grad|=0.047216
C      0.807790    -1.123318     0.043450     -0.000259     0.013704     0.001347
C      1.378609     0.137688    -0.019375      0.013488    -0.014311    -0.002228
C      0.558111     1.270201    -0.084922     -0.008242     0.024971    -0.000898
C     -0.817010     1.099696    -0.086930      0.008040    -0.014593     0.005116
C     -1.387534    -0.170585    -0.032996      0.003199    -0.002646    -0.001748
C     -0.578705    -1.289783     0.035740     -0.019590    -0.010785    -0.000925
H      1.440091    -2.004102     0.089429     -0.000287    -0.004275    -0.001000
H      2.451272     0.262226    -0.002333     -0.003455     0.003660     0.001530
H      1.007351     2.254327    -0.138826      0.004887     0.000331    -0.000881
H     -1.454595     1.976669    -0.150009     -0.000053     0.005289    -0.001583
H     -2.464204    -0.288116    -0.039819     -0.000798    -0.003507     0.000139
H     -0.999827    -2.282024     0.091942      0.003070     0.002162     0.001130
12
Iteration 11, Energy=-230.7211465903, |grad|=0.084718
C      0.815511    -1.138683     0.047861      0.005179    -0.030135     0.000260
C      1.374789     0.145581    -0.026895     -0.018237     0.039109    -0.002481
C      0.568567     1.250482    -0.081486      0.031352    -0.027256     0.003687
C     -0.819328     1.105964    -0.099185     -0.010999     0.032083    -0.005321
C     -1.381511    -0.164072    -0.041613     -0.007510    -0.015116    -0.001324
C     -0.561084    -1.282340     0.040302      0.007346     0.008849     0.003587
H      1.453616    -1.994377     0.131245     -0.009223     0.013585     0.002449
H      2.453636     0.250775    -0.048465      0.002340    -0.001302    -0.003540
H      0.975431     2.252544    -0.107535     -0.007378     0.002024     0.002358
H     -1.455218     1.960294    -0.143492      0.011681    -0.020922     0.001490
H     -2.454869    -0.281308    -0.041034      0.003442     0.000398     0.001646
H     -1.028190    -2.261982     0.075652     -0.007993    -0.001318    -0.002812
12
Iteration 12, Energy=-230.7222070874, |grad|=0.017183
C      0.819334    -1.135753     0.044252     -0.000023     0.000241    -0.001079
C      1.378005     0.131970    -0.015378      0.006681    -0.006377     0.001864
C      0.550743     1.250542    -0.086927     -0.008696    -0.001537    -0.000773
C     -0.829222     1.109038    -0.094831     -0.000961    -0.002693    -0.000538
C     -1.384599    -0.158910    -0.031862      0.002407     0.005927     0.000410
C     -0.561795    -1.277259     0.036095      0.003370     0.001229     0.000086
H      1.461116    -2.008211     0.102028      0.003342    -0.001977     0.000671
H      2.452721     0.247017    -0.012440     -0.001496    -0.002158    -0.000449
H      0.986846     2.239798    -0.132880     -0.001174    -0.000212     0.000301
H     -1.470827     1.983362    -0.146707     -0.003920     0.003705     0.000024
H     -2.461277    -0.274576    -0.038052     -0.001046     0.001745    -0.000201
H     -0.999694    -2.264140     0.082056      0.001514     0.002108    -0.000317
12
Iteration 13, Energy=-230.7222439768, |grad|=0.019578
C      0.812898    -1.131349     0.045620     -0.001467    -0.001197     0.001593
C      1.371644     0.139766    -0.009437     -0.010309     0.007747    -0.000249
C      0.558655     1.254663    -0.082395      0.007671    -0.007158     0.001953
C     -0.823027     1.105285    -0.096346      0.000479     0.004411    -0.001920
C     -1.385154    -0.163326    -0.027707     -0.002568    -0.002890     0.000933
C     -0.564287    -1.282699     0.041198      0.005342     0.000520     0.000143
H      1.452187    -2.002010     0.075329     -0.001608     0.001599    -0.002600
H      2.448953     0.255514     0.002573      0.001606     0.000312     0.000896
H      0.994954     2.243051    -0.141437     -0.000364    -0.000228    -0.001293
H     -1.459889     1.975785    -0.155040      0.001766    -0.002284     0.000435
H     -2.460346    -0.281022    -0.036240      0.000780    -0.000190    -0.000356
H     -1.005240    -2.270782     0.089234     -0.001328    -0.000642     0.000465
12
Iteration 14, Energy=-230.7223450457, |grad|=0.002614
C      0.814612    -1.132090     0.044843      0.000493    -0.000862     0.000384
C      1.376003     0.137087    -0.014453      0.000608     0.000688     0.000328
C      0.556477     1.255878    -0.085419      0.000561     0.000086     0.000192
C     -0.824328     1.105613    -0.094714     -0.000936     0.000520    -0.000668
C     -1.385431    -0.163013    -0.030913     -0.000015    -0.000399     0.000405
C     -0.566244    -1.281858     0.037776     -0.000922    -0.000131    -0.000007
H      1.453414    -2.004002     0.092509     -0.000165     0.000359    -0.000669
H      2.451899     0.253426    -0.007031     -0.000025    -0.000063     0.000172
H      0.993328     2.244867    -0.135927      0.000028     0.000175    -0.000298
H     -1.462853     1.976994    -0.149188      0.000419    -0.000677     0.000204
H     -2.461277    -0.279912    -0.037500      0.000052    -0.000063    -0.000113
H     -1.004249    -2.270113     0.085370     -0.000100     0.000368     0.000071
12
Iteration 1, Energy=-230.7221947643, |grad|=0.008967
C      0.814540    -1.132220     0.042333     -0.000337     0.000476    -0.000829
C      1.375045     0.135420    -0.034866     -0.000859    -0.000832    -0.004355
C      0.555813     1.255134    -0.089571     -0.000551    -0.000343    -0.000801
C     -0.824412     1.106441    -0.086363      0.000630     0.000094     0.004927
C     -1.384914    -0.163192    -0.043113      0.000259     0.000332    -0.003323
C     -0.565374    -1.282233     0.028755      0.001097    -0.000011    -0.000683
H      1.452588    -2.001677     0.134556     -0.000014     0.000108     0.003789
H      2.450944     0.252186    -0.030149     -0.000030    -0.000065    -0.000145
H      0.993208     2.244490    -0.119626     -0.000125    -0.000033     0.001741
H     -1.463016     1.979174    -0.135728     -0.000196     0.000374    -0.001243
H     -2.460887    -0.279563    -0.042874     -0.000027     0.000142     0.001031
H     -1.002186    -2.271082     0.082000      0.000152    -0.000244    -0.000110
12
Iteration 2, Energy=-230.7223457089, |grad|=0.002657
C      0.814504    -1.132083     0.044285     -0.000366     0.000434    -0.001119
C      1.375073     0.136577    -0.015383     -0.000648    -0.000367     0.001292
C      0.555861     1.255466    -0.085582     -0.000425    -0.000244    -0.000302
C     -0.824361     1.106074    -0.093726      0.000572    -0.000185    -0.000388
C     -1.385202    -0.162636    -0.031328      0.000099     0.000421     0.000491
C     -0.565606    -1.281764     0.037445      0.000870     0.000038     0.000458
H      1.453190    -2.004131     0.100542      0.000098    -0.000178     0.000451
H      2.451005     0.253201    -0.013859     -0.000003    -0.000056    -0.000600
H      0.993346     2.244114    -0.132918     -0.000066    -0.000084     0.000150
H     -1.462958     1.978498    -0.147954     -0.000208     0.000397     0.000010
H     -2.461105    -0.279420    -0.038842     -0.000031     0.000053    -0.000155
H     -1.002395    -2.271017     0.082672      0.000108    -0.000228    -0.000288
12
Iteration 3, Energy=-230.7223327067, |grad|=0.005780
C      0.814364    -1.131782     0.046067     -0.000869     0.001460     0.002122
C      1.374937     0.136087    -0.022040     -0.000982    -0.001102    -0.002868
C      0.555713     1.255235    -0.086866     -0.000809    -0.000189     0.000380
C     -0.824297     1.106135    -0.092082      0.001409    -0.000774     0.001536
C     -1.385249    -0.162818    -0.036463      0.000024     0.000617    -0.001742
C     -0.565433    -1.281828     0.034791      0.001544     0.000121    -0.000760
H      1.452924    -2.004342     0.101350      0.000273    -0.000582    -0.000234
H      2.450736     0.253772    -0.010364      0.000026     0.000132     0.000838
H      0.993609     2.243639    -0.132786     -0.000041    -0.000284     0.000051
H     -1.463058     1.979279    -0.143634     -0.000621     0.001022    -0.000195
H     -2.461239    -0.279287    -0.039662     -0.000096     0.000103     0.000436
H     -1.001656    -2.271211     0.087041      0.000141    -0.000524     0.000435
12
Iteration 4, Energy=-230.7223485354, |grad|=0.001638
C      0.814539    -1.131932     0.043665      0.000289    -0.000379    -0.000181
C      1.376181     0.136946    -0.017374      0.000682     0.000441    -0.000200
C      0.556527     1.255823    -0.086092      0.000486     0.000286     0.000017
C     -0.824239     1.105489    -0.093690     -0.000462    -0.000053     0.000095
C     -1.385658    -0.163141    -0.032306     -0.000190    -0.000366     0.000095
C     -0.566323    -1.281885     0.036232     -0.000869     0.000009    -0.000144
H      1.453038    -2.003883     0.098675     -0.000068     0.000140     0.000119
H      2.452066     0.253783    -0.009904      0.000032     0.000075     0.000134
H      0.993638     2.244772    -0.133372      0.000096     0.000051     0.000019
H     -1.462937     1.977238    -0.147686      0.000119    -0.000281    -0.000049
H     -2.461539    -0.279921    -0.037796      0.000011    -0.000077     0.000018
H     -1.003944    -2.270409     0.085001     -0.000126     0.000156     0.000078
12
Iteration 5, Energy=-230.7223460585, |grad|=0.001880
C      0.814608    -1.132018     0.047967      0.000190    -0.000274     0.001352
C      1.375542     0.136715    -0.016116      0.000053     0.000054    -0.000218
C      0.556109     1.255719    -0.085290     -0.000001    -0.000001     0.000011
C     -0.824406     1.106013    -0.092774     -0.000312     0.000337     0.000223
C     -1.385192    -0.162921    -0.033252      0.000147    -0.000090    -0.000791
C     -0.565920    -1.281768     0.038221     -0.000160    -0.000033     0.000289
H      1.453289    -2.004149     0.097739     -0.000061     0.000077    -0.000550
H      2.451456     0.253145    -0.013256     -0.000035    -0.000071    -0.000209
H      0.993234     2.244547    -0.134621     -0.000044     0.000070    -0.000077
H     -1.462991     1.977875    -0.146407      0.000146    -0.000197     0.000091
H     -2.461047    -0.279741    -0.040331      0.000045     0.000029     0.000102
H     -1.003332    -2.270539     0.083473      0.000032     0.000097    -0.000223
12
Iteration 6, Energy=-230.7223490770, |grad|=0.001281
C      0.814553    -1.132117     0.044667     -0.000223     0.000282     0.000111
C      1.375131     0.136508    -0.016742     -0.000529    -0.000375    -0.000055
C      0.555877     1.255492    -0.085882     -0.000416    -0.000239     0.000035
C     -0.824360     1.106097    -0.093739      0.000356     0.000105    -0.000018
C     -1.385112    -0.162719    -0.032376      0.000151     0.000298    -0.000052
C     -0.565617    -1.281811     0.036805      0.000718    -0.000047    -0.000014
H      1.453298    -2.004173     0.097957      0.000035    -0.000073    -0.000072
H      2.451009     0.253225    -0.010390     -0.000039    -0.000064     0.000044
H      0.993206     2.244223    -0.133826     -0.000085    -0.000024    -0.000021
H     -1.462931     1.978317    -0.147525     -0.000056     0.000160     0.000007
H     -2.461013    -0.279440    -0.038329     -0.000001     0.000061     0.000009
H     -1.002691    -2.270724     0.084734      0.000090    -0.000082     0.000025
12
Iteration 7, Energy=-230.7223495068, |grad|=0.000265
C      0.814497    -1.131919     0.045000     -0.000047     0.000094     0.000073
C      1.375649     0.136757    -0.016703      0.000028     0.000027     0.000053
C      0.556211     1.255644    -0.085771      0.000051     0.000008    -0.000015
C     -0.824288     1.105774    -0.093417      0.000065    -0.000101     0.000026
C     -1.385451    -0.162942    -0.032427     -0.000066    -0.000025    -0.000058
C     -0.565987    -1.281817     0.036991     -0.000017     0.000018     0.000063
H      1.453131    -2.003997     0.098778      0.000020    -0.000022    -0.000009
H      2.451557     0.253505    -0.011566      0.000017     0.000019    -0.000086
H      0.993521     2.244408    -0.133758      0.000024    -0.000021    -0.000001
H     -1.462936     1.977875    -0.147107     -0.000039     0.000047     0.000021
H     -2.461346    -0.279727    -0.038965     -0.000017    -0.000016    -0.000021
H     -1.003208    -2.270684     0.084298     -0.000020    -0.000027    -0.000045
12
Iteration 8, Energy=-230.7223494264, |grad|=0.000496
C      0.814601    -1.132129     0.044112      0.000129    -0.000223    -0.000049
C      1.375669     0.136736    -0.016803      0.000143     0.000092    -0.000001
C      0.556194     1.255692    -0.086106      0.000074     0.000093    -0.000048
C     -0.824353     1.105822    -0.094160     -0.000201     0.000066    -0.000070
C     -1.385345    -0.162913    -0.032305      0.000036    -0.000059    -0.000011
C     -0.565982    -1.281850     0.036553     -0.000218     0.000005    -0.000018
H      1.453186    -2.004168     0.098073     -0.000022     0.000023     0.000015
H      2.451550     0.253525    -0.009982     -0.000003    -0.000002     0.000045
H      0.993388     2.244575    -0.133200     -0.000004     0.000031     0.000067
H     -1.462994     1.977772    -0.148239      0.000043    -0.000073    -0.000032
H     -2.461237    -0.279608    -0.037179      0.000022     0.000009     0.000106
H     -1.003327    -2.270576     0.084588      0.000001     0.000039    -0.000003
12
Iteration 9, Energy=-230.7223496058, |grad|=0.000050
C      0.814543    -1.132023     0.044500      0.000005    -0.000008    -0.000021
C      1.375585     0.136713    -0.016783     -0.000008    -0.000004     0.000006
C      0.556159     1.255639    -0.085877     -0.000010    -0.000010    -0.000004
C     -0.824315     1.105835    -0.093630     -0.000008     0.000016     0.000014
C     -1.385356    -0.162900    -0.032295      0.000012     0.000003     0.000004
C     -0.565934    -1.281827     0.036769      0.000004    -0.000001     0.000003
H      1.453170    -2.004057     0.098389     -0.000008     0.000011     0.000007
H      2.451475     0.253462    -0.010709     -0.000004    -0.000003     0.000002
H      0.993412     2.244449    -0.133673     -0.000003     0.000004     0.000000
H     -1.462938     1.977863    -0.147555      0.000013    -0.000018    -0.000008
H     -2.461246    -0.279657    -0.038343      0.000003     0.000001    -0.000001
H     -1.003205    -2.270619     0.084559      0.000002     0.000009    -0.000001
