9
轮次1  Outer Iteration 0, Energy=-153.6998383184, |grad|=3.175948
C     -0.746564     0.324346     0.117312      0.471073    -0.147504     0.374361
C      0.280024    -0.413783     0.461858     -0.424637    -0.068326    -0.158688
O      1.608554     0.420356    -0.238282      1.173635    -0.577779    -1.803319
H     -1.764418    -0.572134    -0.298764     -0.108524    -0.104861    -0.065673
H     -0.646026     0.862935    -1.069610     -0.000220     0.069938    -0.145042
H     -1.307016     1.122371     0.637716     -0.041940     0.032245    -0.023930
H      0.489092    -0.187522     1.615250     -0.004355     0.060847     0.101478
H      0.472364    -1.327362     0.056608      0.006772     0.106411     0.017008
H      1.948577     0.245820    -0.760505     -1.071804     0.629029     1.703806
9
轮次1  Outer Iteration 1, Energy=-153.9017180070, |grad|=1.127574
C     -0.772324     0.331817     0.116271      0.405594    -0.097667     0.353563
C      0.282110    -0.409808     0.475848     -0.367227    -0.095670    -0.132335
O      1.605604     0.432184    -0.197035      0.359911    -0.148060    -0.534674
H     -1.769447    -0.564656    -0.307499     -0.106431    -0.104424    -0.066919
H     -0.667890     0.872417    -1.055915     -0.002580     0.068074    -0.141136
H     -1.340736     1.117801     0.641030     -0.040350     0.029334    -0.025834
H      0.480032    -0.192970     1.624511     -0.003651     0.057876     0.096533
H      0.486647    -1.326637     0.064873      0.011634     0.093919     0.011879
H      2.030590     0.214880    -0.840500     -0.256899     0.196619     0.438924
9
轮次1  Outer Iteration 2, Energy=-153.9755552484, |grad|=0.755709
C     -0.824368     0.354561     0.081489      0.246922     0.023578     0.275386
C      0.323856    -0.396624     0.478133     -0.240504    -0.145001    -0.039208
O      1.614655     0.430655    -0.148414      0.243597    -0.096426    -0.348437
H     -1.769580    -0.521826    -0.309098     -0.101273    -0.098424    -0.064476
H     -0.731721     0.870270    -1.041897     -0.012182     0.054011    -0.120913
H     -1.381916     1.115634     0.633561     -0.033022     0.017215    -0.029661
H      0.526312    -0.200005     1.592831      0.005205     0.049020     0.069006
H      0.536755    -1.339292     0.059876      0.026398     0.052914    -0.005820
H      2.040593     0.161654    -0.824897     -0.135142     0.143114     0.264124
9
轮次1  Outer Iteration 3, Energy=-154.0278480209, |grad|=0.491432
C     -0.837368     0.355835     0.051030      0.202823     0.052594     0.213862
C      0.343724    -0.372207     0.474115     -0.204462    -0.131201     0.003232
O      1.573366     0.443476    -0.104110      0.122048    -0.032125    -0.167002
H     -1.717649    -0.483555    -0.308345     -0.081613    -0.082938    -0.057934
H     -0.730345     0.845599    -1.013064     -0.014364     0.031670    -0.084684
H     -1.379756     1.097243     0.634779     -0.026058     0.008548    -0.026236
H      0.534939    -0.198599     1.559227      0.008329     0.043660     0.031888
H      0.551565    -1.329396     0.052846      0.029551     0.037666    -0.014561
H      1.996109     0.116633    -0.824896     -0.036255     0.072127     0.101436
9
轮次1  Outer Iteration 4, Energy=-154.0607077210, |grad|=0.311232
C     -0.858957     0.353330     0.015240      0.134853     0.062352     0.130504
C      0.371611    -0.342628     0.460660     -0.146429    -0.114738     0.021522
O      1.549616     0.449014    -0.065308      0.055378    -0.002301    -0.064554
H     -1.672318    -0.446700    -0.300454     -0.049712    -0.051532    -0.043720
H     -0.742651     0.830084    -0.998574     -0.017062     0.007622    -0.043507
H     -1.380762     1.073869     0.641883     -0.021334     0.002824    -0.017920
H      0.547143    -0.196891     1.535443      0.015079     0.039769     0.009823
H      0.563385    -1.313900     0.042648      0.028765     0.029523    -0.019000
H      1.957520     0.068850    -0.809956      0.000461     0.026482     0.026854
9
轮次1  Outer Iteration 5, Energy=-154.0780094336, |grad|=0.161832
C     -0.873142     0.343766    -0.018993      0.060666     0.039461     0.058849
C      0.398736    -0.313015     0.448185     -0.081009    -0.078000     0.025663
O      1.526170     0.464659    -0.045217      0.009912     0.011784    -0.008809
H     -1.632633    -0.427709    -0.283268     -0.008463    -0.011265    -0.023114
H     -0.729192     0.822831    -0.999671     -0.011788    -0.006073    -0.017190
H     -1.356409     1.049621     0.653106     -0.013249    -0.003046    -0.007706
H      0.535898    -0.205285     1.523843      0.014775     0.032237    -0.002037
H      0.550694    -1.309355     0.047196      0.019200     0.016155    -0.019885
H      1.914465     0.049515    -0.803597      0.009955    -0.001253    -0.005769
9
轮次1  Outer Iteration 6, Energy=-154.0852339203, |grad|=0.071015
C     -0.889940     0.331740    -0.045622      0.018169     0.016335     0.022941
C      0.421401    -0.276333     0.424577     -0.035851    -0.033018     0.012413
O      1.548529     0.473690    -0.037788      0.008007     0.012533     0.003979
H     -1.640321    -0.448184    -0.252897     -0.004979    -0.005384    -0.011911
H     -0.733095     0.832919    -1.004286     -0.001519    -0.005395    -0.004536
H     -1.324714     1.034012     0.664593     -0.004569    -0.004785     0.000545
H      0.503989    -0.220880     1.508538      0.007192     0.018517    -0.002263
H      0.521009    -1.297630     0.061540      0.004057     0.008654    -0.011203
H      1.927729     0.045693    -0.797073      0.009492    -0.007456    -0.009965
9
轮次1  Outer Iteration 7, Energy=-154.0867941558, |grad|=0.048020
C     -0.872417     0.328786    -0.072280      0.002751     0.011880    -0.007934
C      0.441044    -0.284164     0.431279      0.018493    -0.012634     0.012563
O      1.507250     0.492406    -0.028206     -0.031498     0.007356     0.005619
H     -1.623675    -0.445387    -0.217458      0.009401     0.001192    -0.001549
H     -0.713696     0.835386    -1.026204     -0.002394     0.004529     0.000526
H     -1.270614     1.064839     0.627787     -0.001423    -0.001969    -0.000029
H      0.476356    -0.291474     1.520915      0.000681    -0.000194    -0.000676
H      0.531020    -1.325167     0.104565     -0.001773    -0.001251     0.001981
H      1.859319     0.099802    -0.818816      0.005763    -0.008908    -0.010500
9
轮次1  Outer Iteration 8, Energy=-154.0881543371, |grad|=0.019819
C     -0.890604     0.321438    -0.071267     -0.006610    -0.006369     0.001318
C      0.438709    -0.269512     0.403821      0.001782     0.007802    -0.009223
O      1.559307     0.476815     0.005218     -0.001073     0.000411     0.004401
H     -1.662800    -0.442987    -0.169699     -0.000003     0.002796    -0.001848
H     -0.755707     0.804159    -1.041493      0.001184     0.003618     0.002740
H     -1.263809     1.081599     0.618210     -0.002923    -0.001764     0.000507
H      0.467588    -0.300020     1.494518      0.003271    -0.000129    -0.000138
H      0.531205    -1.311016     0.077869     -0.000388    -0.001730     0.005080
H      1.910698     0.114550    -0.795594      0.004760    -0.004635    -0.002836
9
轮次1  Outer Iteration 9, Energy=-154.0891824168, |grad|=0.013627
C     -0.877902     0.321070    -0.073102     -0.001287     0.001397    -0.001304
C      0.435963    -0.285077     0.415162     -0.001446    -0.001349     0.003388
O      1.557432     0.479341     0.030745      0.004255     0.005526    -0.005977
H     -1.667435    -0.435947    -0.134147     -0.002281    -0.002632    -0.002862
H     -0.738529     0.752429    -1.066406      0.002005     0.001769     0.001789
H     -1.218301     1.114259     0.595370     -0.000932    -0.002623     0.002894
H      0.447144    -0.329992     1.505277     -0.000074     0.001007     0.000912
H      0.523035    -1.315478     0.054798     -0.003641    -0.000883     0.001212
H      1.873180     0.174423    -0.806114      0.003402    -0.002213    -0.000052
9
轮次1  Outer Iteration 10, Energy=-154.0902565636, |grad|=0.013252
C     -0.866541     0.320709    -0.077278     -0.000457     0.004353    -0.001740
C      0.434482    -0.303418     0.416134      0.004010    -0.004451     0.001221
O      1.549072     0.473885     0.070576     -0.006281     0.001844    -0.002639
H     -1.672387    -0.418655    -0.084320      0.001260    -0.002359    -0.002289
H     -0.739884     0.697617    -1.095365      0.001193     0.002265     0.000711
H     -1.167729     1.156743     0.556717     -0.000947    -0.001727     0.002238
H      0.437233    -0.367348     1.504560      0.002776     0.003134    -0.000059
H      0.530113    -1.323688     0.030087     -0.002444    -0.000067     0.000445
H      1.830227     0.239182    -0.799528      0.000889    -0.002990     0.002111
9
轮次1  Outer Iteration 11, Energy=-154.0912049797, |grad|=0.012193
C     -0.857827     0.317077    -0.079249     -0.000160     0.001135     0.000050
C      0.434603    -0.316821     0.416713      0.001849    -0.003111     0.004307
O      1.556863     0.464996     0.100988     -0.002747     0.001456    -0.007925
H     -1.685118    -0.393489    -0.034933      0.002215     0.000914    -0.002580
H     -0.750610     0.641346    -1.117308      0.000022     0.001851     0.001525
H     -1.123459     1.192015     0.516294     -0.001785    -0.001652     0.000709
H      0.416769    -0.408311     1.502658      0.000151     0.000818    -0.000373
H      0.538177    -1.329505     0.011887     -0.001059    -0.000198     0.000780
H      1.805189     0.307720    -0.795467      0.001514    -0.001212     0.003507
9
轮次1  Outer Iteration 12, Energy=-154.0919515517, |grad|=0.010628
C     -0.851681     0.313896    -0.085481      0.001244     0.001038     0.000167
C      0.432627    -0.329173     0.410323     -0.000586    -0.000987    -0.002780
O      1.564383     0.454484     0.137098      0.000425     0.002850    -0.004765
H     -1.696777    -0.374739     0.019288     -0.001560    -0.002850    -0.000931
H     -0.762274     0.583634    -1.142622      0.001404     0.001731    -0.000549
H     -1.069444     1.223754     0.477361     -0.000126    -0.000740     0.001854
H      0.405333    -0.438984     1.495181      0.002156     0.001796     0.000733
H      0.535091    -1.335872    -0.011379     -0.002542    -0.000947     0.000859
H      1.777328     0.378026    -0.778186     -0.000416    -0.001890     0.005413
9
轮次1  Outer Iteration 13, Energy=-154.0924613320, |grad|=0.007615
C     -0.843588     0.312376    -0.088330     -0.001131    -0.000819     0.000283
C      0.433153    -0.340994     0.411417      0.001050     0.002992     0.001243
O      1.570844     0.435820     0.163184     -0.003219    -0.002651    -0.003513
H     -1.700393    -0.346596     0.065346      0.001667     0.000100    -0.001317
H     -0.775309     0.527670    -1.158590      0.000472     0.000517     0.000781
H     -1.026123     1.253578     0.434017     -0.000294    -0.000243     0.000834
H      0.387151    -0.474869     1.492371      0.000059     0.000540     0.000066
H      0.545084    -1.337045    -0.032695      0.000898     0.000642    -0.000586
H      1.743768     0.445087    -0.765138      0.000498    -0.001078     0.002210
9
轮次1  Outer Iteration 14, Energy=-154.0926489267, |grad|=0.010752
C     -0.832597     0.307158    -0.094197      0.002770    -0.000583     0.002024
C      0.434754    -0.363052     0.404232     -0.000862    -0.005934    -0.003577
O      1.575155     0.428679     0.189968      0.001309     0.005243    -0.000364
H     -1.709283    -0.308399     0.116807      0.000952     0.001631    -0.000397
H     -0.794858     0.469721    -1.175780     -0.000632     0.000798     0.000518
H     -0.972869     1.278444     0.383286     -0.001758    -0.000287    -0.000994
H      0.378631    -0.509509     1.482579      0.000548     0.000688    -0.000631
H      0.541462    -1.356928    -0.045856     -0.002600    -0.001419     0.002127
H      1.714191     0.528911    -0.739457      0.000272    -0.000136     0.001294
9
轮次1  Inner Iteration 1, |pred_grad|=0.010404
C     -0.832597     0.307158    -0.094197      0.002769    -0.000584     0.002023
C      0.434754    -0.363052     0.404232     -0.000861    -0.005930    -0.002801
O      1.575155     0.428679     0.189968      0.000976     0.005242    -0.000530
H     -1.709283    -0.308399     0.116807      0.000952     0.001630    -0.000406
H     -0.794858     0.469721    -1.175780     -0.000644     0.000798     0.000370
H     -0.972869     1.278444     0.383286     -0.001816    -0.000415    -0.000891
H      0.378631    -0.509509     1.482579      0.000740     0.000687    -0.000631
H      0.541462    -1.356928    -0.045856     -0.002229    -0.001418     0.002126
H      1.714191     0.528911    -0.739457      0.000345    -0.000395     0.001139
9
轮次1  Inner Iteration 2, |pred_grad|=0.010382
C     -0.832755     0.307191    -0.094313      0.002754    -0.000593     0.002018
C      0.434803    -0.362714     0.404392     -0.000851    -0.005905    -0.002801
O      1.575100     0.428380     0.189998      0.000976     0.005242    -0.000530
H     -1.709337    -0.308492     0.116830      0.000952     0.001630    -0.000408
H     -0.794821     0.469676    -1.175801     -0.000644     0.000798     0.000370
H     -0.972766     1.278468     0.383337     -0.001816    -0.000415    -0.000891
H      0.378589    -0.509548     1.482615      0.000740     0.000680    -0.000631
H      0.541589    -1.356847    -0.045977     -0.002228    -0.001411     0.002125
H      1.714171     0.528934    -0.739522      0.000345    -0.000395     0.001138
9
轮次1  Inner Iteration 3, |pred_grad|=0.010361
C     -0.832912     0.307225    -0.094427      0.002740    -0.000601     0.002012
C      0.434851    -0.362377     0.404551     -0.000841    -0.005880    -0.002800
O      1.575044     0.428082     0.190029      0.000975     0.005242    -0.000530
H     -1.709392    -0.308584     0.116854      0.000952     0.001630    -0.000411
H     -0.794784     0.469630    -1.175822     -0.000644     0.000798     0.000370
H     -0.972662     1.278492     0.383387     -0.001816    -0.000415    -0.000891
H      0.378547    -0.509587     1.482651      0.000740     0.000674    -0.000631
H      0.541716    -1.356766    -0.046098     -0.002228    -0.001405     0.002123
H      1.714152     0.528956    -0.739587      0.000345    -0.000395     0.001137
9
轮次1  Inner Iteration 4, |pred_grad|=0.010339
C     -0.833067     0.307259    -0.094542      0.002726    -0.000610     0.002007
C      0.434899    -0.362044     0.404710     -0.000832    -0.005854    -0.002799
O      1.574989     0.427784     0.190059      0.000975     0.005241    -0.000531
H     -1.709446    -0.308677     0.116877      0.000952     0.001630    -0.000414
H     -0.794748     0.469585    -1.175843     -0.000645     0.000798     0.000370
H     -0.972559     1.278515     0.383438     -0.001817    -0.000415    -0.000891
H      0.378505    -0.509625     1.482687      0.000741     0.000667    -0.000632
H      0.541843    -1.356687    -0.046218     -0.002227    -0.001398     0.002122
H      1.714132     0.528979    -0.739651      0.000345    -0.000396     0.001136
9
轮次1  Inner Iteration 5, |pred_grad|=0.010317
C     -0.833222     0.307294    -0.094655      0.002712    -0.000618     0.002001
C      0.434946    -0.361712     0.404869     -0.000822    -0.005830    -0.002797
O      1.574933     0.427487     0.190089      0.000974     0.005241    -0.000531
H     -1.709500    -0.308769     0.116901      0.000952     0.001629    -0.000416
H     -0.794711     0.469540    -1.175864     -0.000645     0.000798     0.000369
H     -0.972456     1.278539     0.383489     -0.001817    -0.000415    -0.000891
H      0.378463    -0.509663     1.482723      0.000741     0.000661    -0.000632
H      0.541969    -1.356607    -0.046339     -0.002227    -0.001391     0.002120
H      1.714112     0.529001    -0.739716      0.000346    -0.000396     0.001135
9
Outer Iteration 20, Energy=-154.0926719037, |grad|=0.006401
C     -0.833375     0.307329    -0.094769      0.001656    -0.000726     0.000448
C      0.434993    -0.361382     0.405027      0.000871    -0.001510    -0.001237
O      1.574878     0.427190     0.190119     -0.000839     0.002851     0.000944
H     -1.709554    -0.308862     0.116924      0.000828     0.001431    -0.000313
H     -0.794675     0.469495    -1.175885     -0.000518     0.000675     0.001048
H     -0.972353     1.278562     0.383539     -0.001265    -0.000271    -0.000628
H      0.378421    -0.509700     1.482758      0.000587     0.000377    -0.001107
H      0.542095    -1.356529    -0.046459     -0.002025    -0.003007     0.001034
H      1.714093     0.529024    -0.739780      0.000703     0.000179    -0.000191
9
轮次2  Outer Iteration 0, Energy=-154.0926719037, |grad|=0.006401
C     -0.833375     0.307329    -0.094769      0.001656    -0.000726     0.000448
C      0.434993    -0.361382     0.405027      0.000871    -0.001510    -0.001237
O      1.574878     0.427190     0.190119     -0.000839     0.002851     0.000944
H     -1.709554    -0.308862     0.116924      0.000828     0.001431    -0.000313
H     -0.794675     0.469495    -1.175885     -0.000518     0.000675     0.001048
H     -0.972353     1.278562     0.383539     -0.001265    -0.000271    -0.000628
H      0.378421    -0.509700     1.482758      0.000587     0.000377    -0.001107
H      0.542095    -1.356529    -0.046459     -0.002025    -0.003007     0.001034
H      1.714093     0.529024    -0.739780      0.000703     0.000179    -0.000191
9
轮次2  Outer Iteration 1, Energy=-154.0926368389, |grad|=0.010966
C     -0.836546     0.308523    -0.094776     -0.001752    -0.001685    -0.000731
C      0.432625    -0.355157     0.410643     -0.001782     0.006311     0.003658
O      1.582191     0.415552     0.193128      0.000676    -0.004968    -0.002045
H     -1.712223    -0.308643     0.124842     -0.001062    -0.000879    -0.000142
H     -0.794454     0.455623    -1.178997      0.000482    -0.000301    -0.000708
H     -0.965548     1.284736     0.377051      0.001327    -0.000121     0.000734
H      0.372283    -0.518206     1.487369     -0.000458    -0.001057     0.000901
H      0.552185    -1.337157    -0.060343      0.002855     0.002998    -0.001884
H      1.704010     0.529857    -0.737443     -0.000286    -0.000298     0.000217
9
轮次2  Outer Iteration 2, Energy=-154.0927167632, |grad|=0.001801
C     -0.833495     0.308632    -0.095279      0.000264     0.000858     0.000070
C      0.433758    -0.361437     0.406814      0.000101    -0.000985    -0.000525
O      1.576659     0.421960     0.193433     -0.000547     0.000210    -0.000080
H     -1.709543    -0.306954     0.124710      0.000104    -0.000521     0.000150
H     -0.794056     0.458353    -1.178978      0.000263    -0.000059    -0.000215
H     -0.963196     1.284332     0.377402     -0.000035     0.000299     0.000169
H      0.373697    -0.515731     1.484416     -0.000030     0.000201     0.000225
H      0.547186    -1.349473    -0.054374      0.000093     0.000237     0.000056
H      1.703514     0.535447    -0.736670     -0.000213    -0.000241     0.000149
9
轮次2  Outer Iteration 3, Energy=-154.0927147283, |grad|=0.002498
C     -0.834734     0.307161    -0.095767     -0.000926    -0.001058     0.000213
C      0.434333    -0.360704     0.405825     -0.000159     0.001182    -0.000137
O      1.580863     0.419584     0.195979      0.001401    -0.000155     0.000199
H     -1.712598    -0.303593     0.129406     -0.000461     0.000303    -0.000223
H     -0.800035     0.452998    -1.179971     -0.000075     0.000006     0.000078
H     -0.960875     1.284923     0.372797      0.000239    -0.000345    -0.000055
H      0.373456    -0.518182     1.482751     -0.000009    -0.000206    -0.000043
H      0.546451    -1.348618    -0.056293     -0.000224     0.000128     0.000105
H      1.707662     0.541558    -0.733253      0.000215     0.000144    -0.000137
9
轮次2  Outer Iteration 4, Energy=-154.0927190812, |grad|=0.000819
C     -0.833270     0.307787    -0.095851      0.000155     0.000014    -0.000212
C      0.434041    -0.362027     0.406847     -0.000019    -0.000003     0.000619
O      1.577999     0.420539     0.195059     -0.000235    -0.000078    -0.000151
H     -1.710911    -0.303534     0.128079      0.000097     0.000125    -0.000027
H     -0.797282     0.454389    -1.179903     -0.000153     0.000088     0.000051
H     -0.960366     1.285255     0.373326     -0.000051    -0.000098    -0.000083
H      0.373559    -0.518511     1.483912      0.000037    -0.000110    -0.000020
H      0.547291    -1.349863    -0.055507      0.000050    -0.000026    -0.000076
H      1.703460     0.541092    -0.734487      0.000118     0.000088    -0.000102
9
轮次2  Outer Iteration 5, Energy=-154.0927189408, |grad|=0.000931
C     -0.833693     0.307745    -0.095674     -0.000209    -0.000177     0.000273
C      0.434101    -0.361782     0.405848      0.000033     0.000233    -0.000652
O      1.578686     0.420328     0.195721      0.000272     0.000007     0.000201
H     -1.711188    -0.303686     0.129066     -0.000093     0.000028    -0.000010
H     -0.797662     0.453394    -1.179878      0.000131    -0.000090     0.000049
H     -0.960104     1.285545     0.373227      0.000009     0.000037     0.000022
H      0.373119    -0.517923     1.482921      0.000002     0.000140    -0.000088
H      0.547118    -1.349814    -0.056091     -0.000024    -0.000090     0.000054
H      1.704147     0.541322    -0.733664     -0.000121    -0.000087     0.000151
9
轮次2  Outer Iteration 6, Energy=-154.0927193411, |grad|=0.000114
C     -0.833442     0.307831    -0.095767     -0.000001    -0.000014    -0.000013
C      0.434044    -0.361852     0.406457     -0.000002    -0.000014     0.000009
O      1.578287     0.420537     0.195152      0.000041     0.000046    -0.000009
H     -1.710833    -0.304028     0.128230     -0.000010    -0.000033     0.000008
H     -0.797124     0.454250    -1.179895      0.000010    -0.000004    -0.000025
H     -0.960312     1.285288     0.373691      0.000027     0.000013     0.000026
H      0.373240    -0.518051     1.483593     -0.000031    -0.000019     0.000018
H      0.546970    -1.349783    -0.055596     -0.000045     0.000015     0.000009
H      1.703694     0.540936    -0.734390      0.000012     0.000010    -0.000023
