9
初始采样  Outer Iteration 1, Energy=-153.6998383184, |grad|=3.175948
C     -0.746564     0.324346     0.117312      0.471073    -0.147504     0.374361
C      0.280024    -0.413783     0.461858     -0.424637    -0.068326    -0.158688
O      1.608554     0.420356    -0.238282      1.173635    -0.577779    -1.803319
H     -1.764418    -0.572134    -0.298764     -0.108524    -0.104861    -0.065673
H     -0.646026     0.862935    -1.069610     -0.000220     0.069938    -0.145042
H     -1.307016     1.122371     0.637716     -0.041940     0.032245    -0.023930
H      0.489092    -0.187522     1.615250     -0.004355     0.060847     0.101478
H      0.472364    -1.327362     0.056608      0.006772     0.106411     0.017008
H      1.948577     0.245820    -0.760505     -1.071804     0.629029     1.703806
9
初始采样  Outer Iteration 2, Energy=-153.7951199261, |grad|=2.210996
C     -0.755055     0.326825     0.117072      0.448726    -0.130286     0.367475
C      0.280654    -0.412540     0.466559     -0.404968    -0.078115    -0.149898
O      1.607580     0.424312    -0.224586      0.805504    -0.383665    -1.227836
H     -1.766068    -0.569738    -0.301716     -0.107827    -0.104750    -0.066112
H     -0.653120     0.866128    -1.065034     -0.000984     0.069355    -0.143803
H     -1.318234     1.120907     0.638819     -0.041440     0.031300    -0.024577
H      0.485905    -0.189336     1.618455     -0.004137     0.059897     0.099918
H      0.477068    -1.327180     0.059415      0.008406     0.102262     0.015290
H      1.975857     0.235650    -0.787399     -0.703281     0.434003     1.129545
9
初始采样  Outer Iteration 3, Energy=-153.8604943568, |grad|=1.603524
C     -0.767980     0.331849     0.113222      0.407682    -0.097968     0.352470
C      0.286105    -0.410763     0.470880     -0.370088    -0.096058    -0.130333
O      1.608011     0.426722    -0.208602      0.569045    -0.262899    -0.860799
H     -1.767853    -0.562965    -0.304283     -0.106941    -0.104302    -0.066338
H     -0.666506     0.868890    -1.059886     -0.002790     0.067627    -0.141162
H     -1.332562     1.120173     0.638406     -0.040332     0.029245    -0.025769
H      0.488637    -0.191737     1.617757     -0.003072     0.058203     0.096119
H      0.487080    -1.329252     0.061356      0.011759     0.093621     0.011628
H      1.999653     0.222111    -0.807269     -0.465263     0.312531     0.764184
9
初始采样  Outer Iteration 4, Energy=-153.9070704705, |grad|=1.197048
C     -0.781143     0.337000     0.107835      0.367935    -0.066632     0.336161
C      0.292736    -0.407950     0.474519     -0.337054    -0.111004    -0.109352
O      1.607249     0.429047    -0.191815      0.405635    -0.178898    -0.607434
H     -1.767640    -0.554399    -0.306474     -0.105619    -0.103477    -0.066355
H     -0.680198     0.870262    -1.053879     -0.004708     0.065119    -0.137383
H     -1.346161     1.118898     0.637741     -0.038860     0.026724    -0.026895
H      0.492837    -0.193877     1.614724     -0.001822     0.056269     0.090763
H      0.497922    -1.331134     0.062502      0.015352     0.084166     0.007477
H      2.018986     0.207179    -0.823571     -0.300858     0.227735     0.513018
9
初始采样  Outer Iteration 5, Energy=-153.9411903168, |grad|=0.930053
C     -0.794445     0.342188     0.100745      0.329441    -0.036539     0.318042
C      0.300740    -0.404077     0.477275     -0.305629    -0.123140    -0.087135
O      1.605371     0.431206    -0.174494      0.294616    -0.120791    -0.434620
H     -1.765296    -0.543963    -0.308247     -0.103734    -0.102098    -0.066077
H     -0.694109     0.870170    -1.047166     -0.006764     0.061682    -0.132186
H     -1.358813     1.117049     0.636832     -0.037065     0.023801    -0.027876
H      0.498771    -0.195743     1.609286     -0.000330     0.054101     0.083736
H      0.509586    -1.332687     0.062744      0.019055     0.074313     0.003023
H      2.032780     0.190885    -0.835392     -0.189590     0.168673     0.343093
9
轮次1  Outer Iteration 0, Energy=-153.9411903168, |grad|=0.930053
C     -0.794445     0.342188     0.100745      0.329441    -0.036539     0.318042
C      0.300740    -0.404077     0.477275     -0.305629    -0.123140    -0.087135
O      1.605371     0.431206    -0.174494      0.294616    -0.120791    -0.434620
H     -1.765296    -0.543963    -0.308247     -0.103734    -0.102098    -0.066077
H     -0.694109     0.870170    -1.047166     -0.006764     0.061682    -0.132186
H     -1.358813     1.117049     0.636832     -0.037065     0.023801    -0.027876
H      0.498771    -0.195743     1.609286     -0.000330     0.054101     0.083736
H      0.509586    -1.332687     0.062744      0.019055     0.074313     0.003023
H      2.032780     0.190885    -0.835392     -0.189590     0.168673     0.343093
9
轮次1  Outer Iteration 1, Energy=-153.9669413850, |grad|=0.731073
C     -0.807086     0.346761     0.094153      0.296364    -0.011645     0.301153
C      0.307901    -0.399959     0.480094     -0.278655    -0.131589    -0.067656
O      1.603262     0.434014    -0.157154      0.203991    -0.069932    -0.291331
H     -1.762943    -0.534285    -0.310237     -0.101659    -0.100455    -0.065720
H     -0.706963     0.870236    -1.040597     -0.008649     0.058199    -0.126723
H     -1.370935     1.114699     0.636424     -0.035338     0.021087    -0.028640
H      0.503694    -0.197481     1.604698      0.001089     0.052014     0.076760
H      0.520265    -1.333357     0.063067      0.022250     0.065716    -0.000874
H      2.047391     0.174400    -0.848867     -0.099395     0.116605     0.203031
9
轮次1  Outer Iteration 2, Energy=-153.9873211637, |grad|=0.625826
C     -0.819133     0.351184     0.083858      0.263111     0.013181     0.279331
C      0.318117    -0.393932     0.480492     -0.252242    -0.137215    -0.045125
O      1.598630     0.435913    -0.140256      0.159634    -0.045548    -0.220825
H     -1.755420    -0.520715    -0.310946     -0.098122    -0.097402    -0.064589
H     -0.719209     0.866758    -1.032993     -0.010775     0.052605    -0.118063
H     -1.379790     1.111402     0.635333     -0.033071     0.017668    -0.028992
H      0.512544    -0.198560     1.594724      0.003038     0.049611     0.066452
H      0.532176    -1.333731     0.061260      0.025566     0.056325    -0.005368
H      2.046670     0.156709    -0.849889     -0.057139     0.090774     0.137180
9
轮次1  Outer Iteration 3, Energy=-154.0047029661, |grad|=0.548354
C     -0.828948     0.354176     0.072987      0.236190     0.031937     0.256823
C      0.327861    -0.386853     0.479661     -0.230771    -0.138833    -0.025919
O      1.591331     0.438062    -0.124148      0.126529    -0.027126    -0.168261
H     -1.744221    -0.506795    -0.311048     -0.093228    -0.093145    -0.062876
H     -0.728052     0.861625    -1.025050     -0.012583     0.046044    -0.107656
H     -1.385580     1.106920     0.634798     -0.030891     0.014512    -0.028643
H      0.520340    -0.198989     1.584051      0.004941     0.047443     0.055464
H      0.542169    -1.332487     0.058727      0.028047     0.048848    -0.009182
H      2.039687     0.139369    -0.848395     -0.028233     0.070319     0.090250
9
轮次1  Outer Iteration 4, Energy=-154.0198436662, |grad|=0.486978
C     -0.837603     0.356229     0.061525      0.211668     0.046848     0.232617
C      0.337719    -0.379127     0.477826     -0.210880    -0.138073    -0.009067
O      1.582931     0.440116    -0.109024      0.102230    -0.014043    -0.129879
H     -1.731035    -0.492621    -0.310580     -0.086953    -0.087475    -0.060494
H     -0.735096     0.855724    -1.017574     -0.014256     0.038671    -0.095743
H     -1.389331     1.101665     0.634681     -0.028788     0.011556    -0.027743
H      0.527935    -0.199063     1.573202      0.006975     0.045479     0.044302
H      0.550965    -1.330430     0.055659      0.029908     0.042502    -0.012527
H      2.028100     0.122534    -0.844133     -0.009903     0.054536     0.058535
9
轮次1  Outer Iteration 5, Energy=-154.0331344750, |grad|=0.433813
C     -0.845076     0.357262     0.049711      0.188941     0.057725     0.206896
C      0.347451    -0.370831     0.475132     -0.192026    -0.135048     0.004942
O      1.573500     0.442202    -0.094991      0.082922    -0.004768    -0.100327
H     -1.716105    -0.478568    -0.309492     -0.079044    -0.080158    -0.057332
H     -0.740076     0.849328    -1.010837     -0.015697     0.030671    -0.082643
H     -1.390989     1.095620     0.635143     -0.026763     0.008833    -0.026254
H      0.534804    -0.198876     1.562677      0.009085     0.043760     0.033440
H      0.558182    -1.327662     0.052292      0.031086     0.037206    -0.015389
H      2.012894     0.106552    -0.838053      0.001495     0.041779     0.036668
9
轮次1  Outer Iteration 6, Energy=-154.0447319733, |grad|=0.384183
C     -0.851685     0.357333     0.037649      0.166753     0.064643     0.179780
C      0.357091    -0.362024     0.471694     -0.173237    -0.129955     0.015983
O      1.563561     0.444341    -0.082122      0.066633     0.001399    -0.076812
H     -1.700072    -0.464947    -0.307711     -0.069322    -0.070965    -0.053277
H     -0.743271     0.842830    -1.005198     -0.016841     0.022317    -0.068827
H     -1.390732     1.088838     0.636298     -0.024778     0.006327    -0.024186
H      0.540761    -0.198574     1.552826      0.011245     0.042255     0.023326
H      0.563685    -1.324409     0.048850      0.031562     0.032708    -0.017794
H      1.995249     0.091638    -0.830705      0.007985     0.031271     0.021809
9
轮次1  Outer Iteration 7, Energy=-154.0546760477, |grad|=0.335362
C     -0.857675     0.356466     0.025419      0.144158     0.067417     0.151674
C      0.366647    -0.352696     0.467611     -0.153853    -0.122772     0.023951
O      1.553613     0.446664    -0.070520      0.052114     0.005001    -0.057524
H     -1.683605    -0.452202    -0.305141     -0.057706    -0.059774    -0.048251
H     -0.744773     0.836569    -1.000955     -0.017554     0.013977    -0.054915
H     -1.388539     1.081359     0.638297     -0.022762     0.004018    -0.021538
H      0.545475    -0.198333     1.543919      0.013356     0.040874     0.014347
H      0.567172    -1.320876     0.045621      0.031259     0.028767    -0.019741
H      1.976269     0.078076    -0.822668      0.010988     0.022492     0.011997
9
轮次1  Outer Iteration 8, Energy=-154.0629689608, |grad|=0.286120
C     -0.863280     0.354686     0.013089      0.120519     0.065888     0.123299
C      0.376143    -0.342784     0.462953     -0.133464    -0.113414     0.028842
O      1.544336     0.449363    -0.060365      0.038848     0.006517    -0.041486
H     -1.667624    -0.441018    -0.301666     -0.044440    -0.046775    -0.042283
H     -0.744631     0.830928    -0.998362     -0.017638     0.006137    -0.041681
H     -1.384245     1.073264     0.641302     -0.020608     0.001887    -0.018312
H      0.548485    -0.198387     1.536173      0.015236     0.039450     0.006875
H      0.568198    -1.317269     0.042989      0.030032     0.025141    -0.021175
H      1.957203     0.066246    -0.814531      0.011516     0.015168     0.005920
9
轮次1  Outer Iteration 9, Energy=-154.0696463547, |grad|=0.236903
C     -0.868661     0.352041     0.000783      0.095943     0.060291     0.095876
C      0.385566    -0.332231     0.457779     -0.112108    -0.101874     0.030803
O      1.536612     0.452693    -0.051968      0.027003     0.006549    -0.028378
H     -1.653411    -0.432445    -0.297154     -0.030448    -0.032860    -0.035648
H     -0.742845     0.826387    -0.997559     -0.016840    -0.000584    -0.030003
H     -1.377539     1.064763     0.645421     -0.018188    -0.000057    -0.014557
H      0.549103    -0.199078     1.529775      0.016573     0.037718     0.001268
H      0.566183    -1.313814     0.041508      0.027673     0.021608    -0.021964
H      1.939578     0.056711    -0.807002      0.010391     0.009210     0.002602
9
轮次1  Inner Iteration 1, |pred_grad|=0.237183
C     -0.868661     0.352041     0.000783      0.096121     0.060337     0.096047
C      0.385566    -0.332231     0.457779     -0.112264    -0.101897     0.030816
O      1.536612     0.452693    -0.051968      0.027027     0.006546    -0.028406
H     -1.653411    -0.432445    -0.297154     -0.030505    -0.032916    -0.035678
H     -0.742845     0.826387    -0.997559     -0.016852    -0.000593    -0.030015
H     -1.377539     1.064763     0.645421     -0.018213    -0.000041    -0.014572
H      0.549103    -0.199078     1.529775      0.016591     0.037739     0.001259
H      0.566183    -1.313814     0.041508      0.027682     0.021641    -0.021973
H      1.939578     0.056711    -0.807002      0.010388     0.009222     0.002613
9
轮次1  Inner Iteration 2, |pred_grad|=0.212680
C     -0.878273     0.346007    -0.008822      0.081861     0.058526     0.083054
C      0.396792    -0.322041     0.454697     -0.099964    -0.097104     0.032245
O      1.533909     0.452039    -0.049128      0.016063     0.009447    -0.013677
H     -1.650360    -0.429153    -0.293586     -0.024186    -0.026619    -0.032641
H     -0.741159     0.826446    -0.994557     -0.016302    -0.003107    -0.025498
H     -1.375718     1.064767     0.646878     -0.016901    -0.001070    -0.012890
H      0.547444    -0.202852     1.529649      0.017015     0.036661    -0.000697
H      0.563415    -1.315978     0.043705      0.026526     0.019335    -0.022394
H      1.938539     0.055789    -0.807263      0.014505     0.003198    -0.006428
9
轮次1  Inner Iteration 3, |pred_grad|=0.193766
C     -0.886459     0.340154    -0.017127      0.069999     0.056296     0.072183
C      0.406788    -0.312331     0.451473     -0.089728    -0.092980     0.032965
O      1.532303     0.451094    -0.047760      0.009169     0.010680    -0.004922
H     -1.647942    -0.426491    -0.290322     -0.018767    -0.021200    -0.030005
H     -0.739529     0.826757    -0.992007     -0.015727    -0.005122    -0.021843
H     -1.374028     1.064874     0.648167     -0.015769    -0.001912    -0.011428
H      0.545743    -0.206518     1.529718      0.017315     0.035736    -0.002120
H      0.560762    -1.317912     0.045945      0.025436     0.017456    -0.022651
H      1.937089     0.055469    -0.806620      0.016131    -0.000452    -0.010881
9
轮次1  Inner Iteration 4, |pred_grad|=0.178518
C     -0.893459     0.334525    -0.024346      0.060059     0.053903     0.063000
C      0.415761    -0.303033     0.448176     -0.081145    -0.089533     0.033209
O      1.531386     0.450026    -0.047268      0.004962     0.010926    -0.000016
H     -1.646065    -0.424371    -0.287321     -0.014116    -0.016543    -0.027728
H     -0.737957     0.827269    -0.989823     -0.015161    -0.006751    -0.018854
H     -1.372451     1.065065     0.649310     -0.014790    -0.002607    -0.010171
H      0.544011    -0.210092     1.529930      0.017522     0.034941    -0.003153
H      0.558218    -1.319657     0.048210      0.024452     0.015911    -0.022795
H      1.935476     0.055514    -0.805532      0.016301    -0.002563    -0.012531
9
轮次1  Inner Iteration 5, |pred_grad|=0.165917
C     -0.899465     0.329135    -0.030646      0.051668     0.051487     0.055172
C      0.423876    -0.294080     0.444855     -0.073892    -0.086701     0.033130
O      1.530890     0.448933    -0.047266      0.002540     0.010597     0.002400
H     -1.644653    -0.422717    -0.284549     -0.010115    -0.012536    -0.025763
H     -0.736440     0.827944    -0.987938     -0.014623    -0.008080    -0.016388
H     -1.370972     1.065326     0.650327     -0.013940    -0.003188    -0.009094
H      0.542259    -0.213586     1.530246      0.017660     0.034254    -0.003895
H      0.555773    -1.321248     0.050489      0.023581     0.014633    -0.022858
H      1.933846     0.055770    -0.804279      0.015636    -0.003674    -0.012479
9
初始采样  Outer Iteration 20, Energy=-154.0822214235, |grad|=0.080243
C     -0.904632     0.323986    -0.036163     -0.004511    -0.018211     0.000310
C      0.431265    -0.285410     0.441542     -0.013035    -0.001719     0.027965
O      1.530636     0.447874    -0.047506     -0.009864    -0.027049    -0.011077
H     -1.643642    -0.421463    -0.281972      0.014927     0.020862    -0.012480
H     -0.734978     0.828752    -0.986299     -0.007641    -0.008173     0.001080
H     -1.369578     1.065645     0.651236     -0.019928     0.020316     0.010457
H      0.540493    -0.217011     1.530635      0.012335     0.021460     0.008393
H      0.553415    -1.322712     0.052775      0.018227    -0.016222    -0.029239
H      1.932282     0.056138    -0.803031      0.009489     0.008737     0.004591
9
轮次2  Outer Iteration 0, Energy=-154.0822214235, |grad|=0.080243
C     -0.904632     0.323986    -0.036163     -0.004511    -0.018211     0.000310
C      0.431265    -0.285410     0.441542     -0.013035    -0.001719     0.027965
O      1.530636     0.447874    -0.047506     -0.009864    -0.027049    -0.011077
H     -1.643642    -0.421463    -0.281972      0.014927     0.020862    -0.012480
H     -0.734978     0.828752    -0.986299     -0.007641    -0.008173     0.001080
H     -1.369578     1.065645     0.651236     -0.019928     0.020316     0.010457
H      0.540493    -0.217011     1.530635      0.012335     0.021460     0.008393
H      0.553415    -1.322712     0.052775      0.018227    -0.016222    -0.029239
H      1.932282     0.056138    -0.803031      0.009489     0.008737     0.004591
9
轮次2  Outer Iteration 1, Energy=-154.0849740048, |grad|=0.051010
C     -0.893988     0.323107    -0.041130      0.003873    -0.001793     0.013459
C      0.429792    -0.281192     0.439043     -0.013479    -0.014702     0.023795
O      1.526285     0.465788    -0.047624     -0.006538    -0.010563    -0.009006
H     -1.637871    -0.438183    -0.275752      0.005169     0.006239    -0.013076
H     -0.718249     0.834263    -0.990458     -0.003487    -0.004043    -0.002157
H     -1.335513     1.050479     0.651820     -0.007779     0.006688     0.002352
H      0.522930    -0.226054     1.524374      0.008143     0.017092     0.000985
H      0.532186    -1.310789     0.067394      0.007800    -0.002204    -0.018505
H      1.909690     0.058379    -0.806451      0.006296     0.003285     0.002153
9
轮次2  Outer Iteration 2, Energy=-154.0863203405, |grad|=0.033093
C     -0.894479     0.324028    -0.050365     -0.000900     0.000961     0.011448
C      0.432455    -0.272066     0.427286     -0.010350    -0.013674     0.012931
O      1.538208     0.472829    -0.042838      0.000405    -0.002998    -0.006786
H     -1.637410    -0.447973    -0.259783      0.002988     0.002608    -0.009896
H     -0.727646     0.842151    -0.997059     -0.001349    -0.002136    -0.000637
H     -1.319620     1.042204     0.654449     -0.002986     0.001070     0.000533
H      0.507575    -0.235009     1.513902      0.005960     0.012136    -0.000469
H      0.525416    -1.304414     0.076624      0.003044     0.001880    -0.010029
H      1.910763     0.054048    -0.800997      0.003188     0.000154     0.002906
9
轮次2  Outer Iteration 3, Energy=-154.0870393866, |grad|=0.021380
C     -0.886563     0.325248    -0.060031      0.001877     0.004199     0.005073
C      0.435077    -0.273158     0.424714     -0.002886    -0.011070     0.009195
O      1.530683     0.481681    -0.040368     -0.005631     0.002051    -0.006065
H     -1.633214    -0.450844    -0.243195      0.003140    -0.000105    -0.006279
H     -0.722554     0.844092    -1.007126     -0.000445     0.000941    -0.000392
H     -1.299280     1.045616     0.648766     -0.001508    -0.000765     0.000915
H      0.491284    -0.255135     1.513483      0.002803     0.006060    -0.000008
H      0.523597    -1.311730     0.092230     -0.000137     0.000435    -0.003375
H      1.896233     0.070029    -0.807255      0.002788    -0.001746     0.000936
9
轮次2  Outer Iteration 4, Energy=-154.0874853573, |grad|=0.010022
C     -0.890126     0.323793    -0.064968     -0.001256     0.000174     0.003544
C      0.437451    -0.265941     0.413845     -0.001222    -0.000501     0.000950
O      1.547797     0.478366    -0.027243     -0.000066     0.000034    -0.004168
H     -1.644701    -0.452873    -0.220024     -0.000626    -0.000859    -0.004261
H     -0.736908     0.837497    -1.016272      0.001131     0.001646     0.001200
H     -1.290699     1.049201     0.645107     -0.001274    -0.002308     0.001221
H      0.481541    -0.264294     1.503305      0.002285     0.003436    -0.000631
H      0.521639    -1.307274     0.088651     -0.001492     0.000068     0.000085
H      1.909268     0.077322    -0.801182      0.002519    -0.001689     0.002060
9
轮次2  Outer Iteration 5, Energy=-154.0878688216, |grad|=0.009657
C     -0.885422     0.324091    -0.068495     -0.000979     0.000956     0.000848
C      0.437855    -0.271206     0.414269      0.000791    -0.001711     0.000050
O      1.546547     0.479793    -0.014920     -0.001706     0.000928    -0.005011
H     -1.645777    -0.449293    -0.201920      0.000910    -0.000223    -0.003103
H     -0.736814     0.823761    -1.027756      0.000600     0.002428     0.001652
H     -1.275226     1.063199     0.633383     -0.001518    -0.002483     0.001056
H      0.474359    -0.281282     1.504385      0.002103     0.002049    -0.000156
H      0.524174    -1.311347     0.086052     -0.001757    -0.000085     0.001757
H      1.895565     0.098083    -0.803779      0.001556    -0.001859     0.002906
9
轮次2  Outer Iteration 6, Energy=-154.0882349881, |grad|=0.009614
C     -0.881630     0.323287    -0.070404     -0.000235     0.000578    -0.000174
C      0.437377    -0.275984     0.414988      0.001146    -0.001153     0.000454
O      1.546468     0.480062    -0.002653     -0.003202     0.002090    -0.004183
H     -1.649130    -0.445840    -0.184393      0.001310    -0.000283    -0.002689
H     -0.735188     0.806824    -1.038448      0.000778     0.002786     0.001575
H     -1.258932     1.077124     0.623219     -0.001563    -0.002260     0.001621
H      0.465829    -0.295496     1.505448      0.001360     0.001423     0.000231
H      0.524838    -1.314656     0.080723     -0.002122    -0.000718     0.002118
H      1.885629     0.120478    -0.807261      0.002529    -0.002464     0.001047
9
轮次2  Outer Iteration 7, Energy=-154.0886028899, |grad|=0.009889
C     -0.878352     0.322584    -0.072021      0.000480     0.000538    -0.000541
C      0.436918    -0.280574     0.415183      0.001274    -0.000710     0.000236
O      1.547243     0.479313     0.010473     -0.003782     0.002101    -0.004189
H     -1.653240    -0.441886    -0.167126      0.001267    -0.000515    -0.002486
H     -0.735172     0.789490    -1.048978      0.000807     0.003055     0.001423
H     -1.243335     1.091032     0.612340     -0.001618    -0.002138     0.001823
H      0.459836    -0.308834     1.505537      0.001430     0.001238     0.000211
H      0.526126    -1.317247     0.074018     -0.002186    -0.001082     0.002290
H      1.875236     0.141921    -0.808208      0.002330    -0.002488     0.001235
9
轮次2  Outer Iteration 8, Energy=-154.0889738649, |grad|=0.009979
C     -0.875515     0.321776    -0.073156      0.001351     0.000248    -0.000281
C      0.436374    -0.284826     0.415124      0.000878     0.000220     0.000076
O      1.549037     0.477381     0.023877     -0.003727     0.001357    -0.004663
H     -1.657979    -0.437591    -0.150085      0.000819    -0.000842    -0.002505
H     -0.736428     0.771529    -1.059129      0.000778     0.003204     0.001137
H     -1.228376     1.104773     0.601265     -0.001717    -0.001929     0.001961
H      0.454912    -0.321045     1.505101      0.001782     0.001420    -0.000016
H      0.527451    -1.319208     0.065980     -0.002023    -0.001477     0.002031
H      1.865785     0.163010    -0.807759      0.001859    -0.002200     0.002259
9
轮次2  Outer Iteration 9, Energy=-154.0893432783, |grad|=0.009501
C     -0.873326     0.321026    -0.073912      0.001144     0.000202     0.000131
C      0.436014    -0.289104     0.415037      0.000590     0.000181    -0.000174
O      1.551793     0.475039     0.037060     -0.003177     0.001257    -0.004358
H     -1.662996    -0.432657    -0.133229      0.000511    -0.000841    -0.002584
H     -0.738163     0.752925    -1.068503      0.000782     0.003055     0.001160
H     -1.214187     1.118232     0.589732     -0.001775    -0.001934     0.001780
H      0.450081    -0.333162     1.504649      0.001990     0.001627    -0.000108
H      0.528733    -1.320515     0.057615     -0.001867    -0.001291     0.001858
H      1.857312     0.184014    -0.807232      0.001802    -0.002256     0.002296
9
轮次2  Inner Iteration 1, |pred_grad|=0.009573
C     -0.873326     0.321026    -0.073912      0.001162     0.000201     0.000131
C      0.436014    -0.289104     0.415037      0.000589     0.000181    -0.000170
O      1.551793     0.475039     0.037060     -0.003222     0.001253    -0.004452
H     -1.662996    -0.432657    -0.133229      0.000511    -0.000842    -0.002585
H     -0.738163     0.752925    -1.068503      0.000782     0.003058     0.001160
H     -1.214187     1.118232     0.589732     -0.001776    -0.001932     0.001781
H      0.450081    -0.333162     1.504649      0.002015     0.001630    -0.000108
H      0.528733    -1.320515     0.057615     -0.001865    -0.001291     0.001849
H      1.857312     0.184014    -0.807232      0.001795    -0.002254     0.002333
9
轮次2  Inner Iteration 2, |pred_grad|=0.009570
C     -0.873387     0.321016    -0.073919      0.001158     0.000200     0.000136
C      0.435983    -0.289114     0.415046      0.000586     0.000175    -0.000182
O      1.551963     0.474973     0.037295     -0.003218     0.001255    -0.004451
H     -1.663023    -0.432612    -0.133092      0.000509    -0.000839    -0.002586
H     -0.738204     0.752764    -1.068564      0.000783     0.003052     0.001160
H     -1.214093     1.118334     0.589638     -0.001775    -0.001935     0.001777
H      0.449974    -0.333248     1.504655      0.002020     0.001636    -0.000109
H      0.528832    -1.320447     0.057518     -0.001863    -0.001285     0.001847
H      1.857217     0.184133    -0.807355      0.001793    -0.002257     0.002332
9
轮次2  Inner Iteration 3, |pred_grad|=0.009567
C     -0.873448     0.321005    -0.073926      0.001155     0.000198     0.000141
C      0.435952    -0.289123     0.415056      0.000582     0.000168    -0.000195
O      1.552133     0.474907     0.037530     -0.003215     0.001256    -0.004451
H     -1.663049    -0.432568    -0.132956      0.000507    -0.000836    -0.002588
H     -0.738245     0.752602    -1.068626      0.000783     0.003046     0.001161
H     -1.214000     1.118437     0.589544     -0.001774    -0.001939     0.001774
H      0.449867    -0.333335     1.504661      0.002025     0.001642    -0.000110
H      0.528930    -1.320379     0.057420     -0.001862    -0.001280     0.001846
H      1.857122     0.184252    -0.807478      0.001792    -0.002259     0.002331
9
轮次2  Inner Iteration 4, |pred_grad|=0.009564
C     -0.873509     0.320995    -0.073934      0.001151     0.000197     0.000146
C      0.435921    -0.289132     0.415066      0.000579     0.000161    -0.000207
O      1.552303     0.474840     0.037766     -0.003211     0.001258    -0.004450
H     -1.663076    -0.432524    -0.132819      0.000505    -0.000833    -0.002589
H     -0.738287     0.752441    -1.068687      0.000784     0.003039     0.001162
H     -1.213906     1.118539     0.589450     -0.001773    -0.001943     0.001771
H      0.449760    -0.333422     1.504666      0.002030     0.001648    -0.000110
H      0.529029    -1.320311     0.057322     -0.001860    -0.001274     0.001845
H      1.857027     0.184372    -0.807601      0.001790    -0.002261     0.002330
9
轮次2  Inner Iteration 5, |pred_grad|=0.009562
C     -0.873570     0.320984    -0.073942      0.001147     0.000195     0.000151
C      0.435891    -0.289141     0.415077      0.000576     0.000154    -0.000219
O      1.552473     0.474774     0.038001     -0.003208     0.001260    -0.004449
H     -1.663103    -0.432480    -0.132682      0.000504    -0.000830    -0.002590
H     -0.738328     0.752281    -1.068748      0.000785     0.003033     0.001163
H     -1.213812     1.118642     0.589357     -0.001772    -0.001946     0.001767
H      0.449653    -0.333509     1.504672      0.002035     0.001654    -0.000111
H      0.529127    -1.320244     0.057225     -0.001859    -0.001268     0.001844
H      1.856933     0.184491    -0.807724      0.001788    -0.002263     0.002329
9
初始采样  Outer Iteration 36, Energy=-154.0893659061, |grad|=0.008860
C     -0.873631     0.320974    -0.073950      0.000318    -0.000056     0.000150
C      0.435860    -0.289149     0.415089      0.000265    -0.000007    -0.000258
O      1.552642     0.474707     0.038236     -0.003195     0.001999    -0.002562
H     -1.663130    -0.432436    -0.132545      0.000817    -0.000551    -0.002571
H     -0.738370     0.752121    -1.068810      0.000846     0.003004     0.001235
H     -1.213719     1.118744     0.589263     -0.001678    -0.001992     0.001728
H      0.449546    -0.333596     1.504678      0.002007     0.001663    -0.000115
H      0.529225    -1.320177     0.057128     -0.001716    -0.001105     0.001839
H      1.856838     0.184611    -0.807847      0.002337    -0.002955     0.000555
9
轮次3  Outer Iteration 0, Energy=-154.0893659061, |grad|=0.008860
C     -0.873631     0.320974    -0.073950      0.000318    -0.000056     0.000150
C      0.435860    -0.289149     0.415089      0.000265    -0.000007    -0.000258
O      1.552642     0.474707     0.038236     -0.003195     0.001999    -0.002562
H     -1.663130    -0.432436    -0.132545      0.000817    -0.000551    -0.002571