9
初始采样  Outer Iteration 1, Energy=-153.6998383184, |grad|=3.175948
C     -0.746564     0.324346     0.117312      0.471073    -0.147504     0.374361
C      0.280024    -0.413783     0.461858     -0.424637    -0.068326    -0.158688
O      1.608554     0.420356    -0.238282      1.173635    -0.577779    -1.803319
H     -1.764418    -0.572134    -0.298764     -0.108524    -0.104861    -0.065673
H     -0.646026     0.862935    -1.069610     -0.000220     0.069938    -0.145042
H     -1.307016     1.122371     0.637716     -0.041940     0.032245    -0.023930
H      0.489092    -0.187522     1.615250     -0.004355     0.060847     0.101478
H      0.472364    -1.327362     0.056608      0.006772     0.106411     0.017008
H      1.948577     0.245820    -0.760505     -1.071804     0.629029     1.703806
9
初始采样  Outer Iteration 2, Energy=-153.7951199261, |grad|=2.210996
C     -0.755055     0.326825     0.117072      0.448726    -0.130286     0.367475
C      0.280654    -0.412540     0.466559     -0.404968    -0.078115    -0.149898
O      1.607580     0.424312    -0.224586      0.805504    -0.383665    -1.227836
H     -1.766068    -0.569738    -0.301716     -0.107827    -0.104750    -0.066112
H     -0.653120     0.866128    -1.065034     -0.000984     0.069355    -0.143803
H     -1.318234     1.120907     0.638819     -0.041440     0.031300    -0.024577
H      0.485905    -0.189336     1.618455     -0.004137     0.059897     0.099918
H      0.477068    -1.327180     0.059415      0.008406     0.102262     0.015290
H      1.975857     0.235650    -0.787399     -0.703281     0.434003     1.129545
9
初始采样  Outer Iteration 3, Energy=-153.8604943568, |grad|=1.603524
C     -0.767980     0.331849     0.113222      0.407682    -0.097968     0.352470
C      0.286105    -0.410763     0.470880     -0.370088    -0.096058    -0.130333
O      1.608011     0.426722    -0.208602      0.569045    -0.262899    -0.860799
H     -1.767853    -0.562965    -0.304283     -0.106941    -0.104302    -0.066338
H     -0.666506     0.868890    -1.059886     -0.002790     0.067627    -0.141162
H     -1.332562     1.120173     0.638406     -0.040332     0.029245    -0.025769
H      0.488637    -0.191737     1.617757     -0.003072     0.058203     0.096119
H      0.487080    -1.329252     0.061356      0.011759     0.093621     0.011628
H      1.999653     0.222111    -0.807269     -0.465263     0.312531     0.764184
9
初始采样  Outer Iteration 4, Energy=-153.9070704705, |grad|=1.197048
C     -0.781143     0.337000     0.107835      0.367935    -0.066632     0.336161
C      0.292736    -0.407950     0.474519     -0.337054    -0.111004    -0.109352
O      1.607249     0.429047    -0.191815      0.405635    -0.178898    -0.607434
H     -1.767640    -0.554399    -0.306474     -0.105619    -0.103477    -0.066355
H     -0.680198     0.870262    -1.053879     -0.004708     0.065119    -0.137383
H     -1.346161     1.118898     0.637741     -0.038860     0.026724    -0.026895
H      0.492837    -0.193877     1.614724     -0.001822     0.056269     0.090763
H      0.497922    -1.331134     0.062502      0.015352     0.084166     0.007477
H      2.018986     0.207179    -0.823571     -0.300858     0.227735     0.513018
9
初始采样  Outer Iteration 5, Energy=-153.9411903168, |grad|=0.930053
C     -0.794445     0.342188     0.100745      0.329441    -0.036539     0.318042
C      0.300740    -0.404077     0.477275     -0.305629    -0.123140    -0.087135
O      1.605371     0.431206    -0.174494      0.294616    -0.120791    -0.434620
H     -1.765296    -0.543963    -0.308247     -0.103734    -0.102098    -0.066077
H     -0.694109     0.870170    -1.047166     -0.006764     0.061682    -0.132186
H     -1.358813     1.117049     0.636832     -0.037065     0.023801    -0.027876
H      0.498771    -0.195743     1.609286     -0.000330     0.054101     0.083736
H      0.509586    -1.332687     0.062744      0.019055     0.074313     0.003023
H      2.032780     0.190885    -0.835392     -0.189590     0.168673     0.343093
9
轮次1  Outer Iteration 0, Energy=-153.9411903168, |grad|=0.930053
C     -0.794445     0.342188     0.100745      0.329441    -0.036539     0.318042
C      0.300740    -0.404077     0.477275     -0.305629    -0.123140    -0.087135
O      1.605371     0.431206    -0.174494      0.294616    -0.120791    -0.434620
H     -1.765296    -0.543963    -0.308247     -0.103734    -0.102098    -0.066077
H     -0.694109     0.870170    -1.047166     -0.006764     0.061682    -0.132186
H     -1.358813     1.117049     0.636832     -0.037065     0.023801    -0.027876
H      0.498771    -0.195743     1.609286     -0.000330     0.054101     0.083736
H      0.509586    -1.332687     0.062744      0.019055     0.074313     0.003023
H      2.032780     0.190885    -0.835392     -0.189590     0.168673     0.343093
9
轮次1  Outer Iteration 1, Energy=-153.9669413850, |grad|=0.731073
C     -0.807086     0.346761     0.094153      0.296364    -0.011645     0.301153
C      0.307901    -0.399959     0.480094     -0.278655    -0.131589    -0.067656
O      1.603262     0.434014    -0.157154      0.203991    -0.069932    -0.291331
H     -1.762943    -0.534285    -0.310237     -0.101659    -0.100455    -0.065720
H     -0.706963     0.870236    -1.040597     -0.008649     0.058199    -0.126723
H     -1.370935     1.114699     0.636424     -0.035338     0.021087    -0.028640
H      0.503694    -0.197481     1.604698      0.001089     0.052014     0.076760
H      0.520265    -1.333357     0.063067      0.022250     0.065716    -0.000874
H      2.047391     0.174400    -0.848867     -0.099395     0.116605     0.203031
9
轮次1  Outer Iteration 2, Energy=-153.9873211637, |grad|=0.625826
C     -0.819133     0.351184     0.083858      0.263111     0.013181     0.279331
C      0.318117    -0.393932     0.480492     -0.252242    -0.137215    -0.045125
O      1.598630     0.435913    -0.140256      0.159634    -0.045548    -0.220825
H     -1.755420    -0.520715    -0.310946     -0.098122    -0.097402    -0.064589
H     -0.719209     0.866758    -1.032993     -0.010775     0.052605    -0.118063
H     -1.379790     1.111402     0.635333     -0.033071     0.017668    -0.028992
H      0.512544    -0.198560     1.594724      0.003038     0.049611     0.066452
H      0.532176    -1.333731     0.061260      0.025566     0.056325    -0.005368
H      2.046670     0.156709    -0.849889     -0.057139     0.090774     0.137180
9
轮次1  Outer Iteration 3, Energy=-154.0047029661, |grad|=0.548354
C     -0.828948     0.354176     0.072987      0.236190     0.031937     0.256823
C      0.327861    -0.386853     0.479661     -0.230771    -0.138833    -0.025919
O      1.591331     0.438062    -0.124148      0.126529    -0.027126    -0.168261
H     -1.744221    -0.506795    -0.311048     -0.093228    -0.093145    -0.062876
H     -0.728052     0.861625    -1.025050     -0.012583     0.046044    -0.107656
H     -1.385580     1.106920     0.634798     -0.030891     0.014512    -0.028643
H      0.520340    -0.198989     1.584051      0.004941     0.047443     0.055464
H      0.542169    -1.332487     0.058727      0.028047     0.048848    -0.009182
H      2.039687     0.139369    -0.848395     -0.028233     0.070319     0.090250
9
轮次1  Outer Iteration 4, Energy=-154.0198436662, |grad|=0.486978
C     -0.837603     0.356229     0.061525      0.211668     0.046848     0.232617
C      0.337719    -0.379127     0.477826     -0.210880    -0.138073    -0.009067
O      1.582931     0.440116    -0.109024      0.102230    -0.014043    -0.129879
H     -1.731035    -0.492621    -0.310580     -0.086953    -0.087475    -0.060494
H     -0.735096     0.855724    -1.017574     -0.014256     0.038671    -0.095743
H     -1.389331     1.101665     0.634681     -0.028788     0.011556    -0.027743
H      0.527935    -0.199063     1.573202      0.006975     0.045479     0.044302
H      0.550965    -1.330430     0.055659      0.029908     0.042502    -0.012527
H      2.028100     0.122534    -0.844133     -0.009903     0.054536     0.058535
9
轮次1  Outer Iteration 5, Energy=-154.0331344750, |grad|=0.433813
C     -0.845076     0.357262     0.049711      0.188941     0.057725     0.206896
C      0.347451    -0.370831     0.475132     -0.192026    -0.135048     0.004942
O      1.573500     0.442202    -0.094991      0.082922    -0.004768    -0.100327
H     -1.716105    -0.478568    -0.309492     -0.079044    -0.080158    -0.057332
H     -0.740076     0.849328    -1.010837     -0.015697     0.030671    -0.082643
H     -1.390989     1.095620     0.635143     -0.026763     0.008833    -0.026254
H      0.534804    -0.198876     1.562677      0.009085     0.043760     0.033440
H      0.558182    -1.327662     0.052292      0.031086     0.037206    -0.015389
H      2.012894     0.106552    -0.838053      0.001495     0.041779     0.036668
9
轮次1  Outer Iteration 6, Energy=-154.0447319733, |grad|=0.384183
C     -0.851685     0.357333     0.037649      0.166753     0.064643     0.179780
C      0.357091    -0.362024     0.471694     -0.173237    -0.129955     0.015983
O      1.563561     0.444341    -0.082122      0.066633     0.001399    -0.076812
H     -1.700072    -0.464947    -0.307711     -0.069322    -0.070965    -0.053277
H     -0.743271     0.842830    -1.005198     -0.016841     0.022317    -0.068827
H     -1.390732     1.088838     0.636298     -0.024778     0.006327    -0.024186
H      0.540761    -0.198574     1.552826      0.011245     0.042255     0.023326
H      0.563685    -1.324409     0.048850      0.031562     0.032708    -0.017794
H      1.995249     0.091638    -0.830705      0.007985     0.031271     0.021809
9
轮次1  Outer Iteration 7, Energy=-154.0546760477, |grad|=0.335362
C     -0.857675     0.356466     0.025419      0.144158     0.067417     0.151674
C      0.366647    -0.352696     0.467611     -0.153853    -0.122772     0.023951
O      1.553613     0.446664    -0.070520      0.052114     0.005001    -0.057524
H     -1.683605    -0.452202    -0.305141     -0.057706    -0.059774    -0.048251
H     -0.744773     0.836569    -1.000955     -0.017554     0.013977    -0.054915
H     -1.388539     1.081359     0.638297     -0.022762     0.004018    -0.021538
H      0.545475    -0.198333     1.543919      0.013356     0.040874     0.014347
H      0.567172    -1.320876     0.045621      0.031259     0.028767    -0.019741
H      1.976269     0.078076    -0.822668      0.010988     0.022492     0.011997
9
轮次1  Outer Iteration 8, Energy=-154.0629689608, |grad|=0.286120
C     -0.863280     0.354686     0.013089      0.120519     0.065888     0.123299
C      0.376143    -0.342784     0.462953     -0.133464    -0.113414     0.028842
O      1.544336     0.449363    -0.060365      0.038848     0.006517    -0.041486
H     -1.667624    -0.441018    -0.301666     -0.044440    -0.046775    -0.042283
H     -0.744631     0.830928    -0.998362     -0.017638     0.006137    -0.041681
H     -1.384245     1.073264     0.641302     -0.020608     0.001887    -0.018312
H      0.548485    -0.198387     1.536173      0.015236     0.039450     0.006875
H      0.568198    -1.317269     0.042989      0.030032     0.025141    -0.021175
H      1.957203     0.066246    -0.814531      0.011516     0.015168     0.005920
9
轮次1  Outer Iteration 9, Energy=-154.0696463547, |grad|=0.236903
C     -0.868661     0.352041     0.000783      0.095943     0.060291     0.095876
C      0.385566    -0.332231     0.457779     -0.112108    -0.101874     0.030803
O      1.536612     0.452693    -0.051968      0.027003     0.006549    -0.028378
H     -1.653411    -0.432445    -0.297154     -0.030448    -0.032860    -0.035648
H     -0.742845     0.826387    -0.997559     -0.016840    -0.000584    -0.030003
H     -1.377539     1.064763     0.645421     -0.018188    -0.000057    -0.014557
H      0.549103    -0.199078     1.529775      0.016573     0.037718     0.001268
H      0.566183    -1.313814     0.041508      0.027673     0.021608    -0.021964
H      1.939578     0.056711    -0.807002      0.010391     0.009210     0.002602
9
轮次1  Inner Iteration 1, |pred_grad|=0.237371
C     -0.868661     0.352041     0.000783      0.096274     0.060368     0.096120
C      0.385566    -0.332231     0.457779     -0.112386    -0.101913     0.030792
O      1.536612     0.452693    -0.051968      0.027059     0.006532    -0.028455
H     -1.653411    -0.432445    -0.297154     -0.030519    -0.032929    -0.035684
H     -0.742845     0.826387    -0.997559     -0.016873    -0.000607    -0.029999
H     -1.377539     1.064763     0.645421     -0.018232    -0.000022    -0.014572
H      0.549103    -0.199078     1.529775      0.016604     0.037766     0.001250
H      0.566183    -1.313814     0.041508      0.027713     0.021687    -0.021978
H      1.939578     0.056711    -0.807002      0.010359     0.009238     0.002660
9
轮次1  Inner Iteration 2, |pred_grad|=0.226356
C     -0.872551     0.349601    -0.003101      0.089944     0.059767     0.090668
C      0.390107    -0.328113     0.456534     -0.106958    -0.099927     0.031478
O      1.535519     0.452429    -0.050818      0.020673     0.008991    -0.019322
H     -1.652178    -0.431114    -0.295712     -0.027889    -0.030301    -0.034426
H     -0.742163     0.826412    -0.996347     -0.016641    -0.001627    -0.028170
H     -1.376802     1.064764     0.646010     -0.017674    -0.000470    -0.013885
H      0.548432    -0.200604     1.529724      0.016790     0.037294     0.000497
H      0.565063    -1.314690     0.042396      0.027212     0.020627    -0.022187
H      1.939160     0.056337    -0.807109      0.014531     0.005715    -0.004715
9
轮次1  Inner Iteration 3, |pred_grad|=0.216797
C     -0.876219     0.347165    -0.006798      0.083953     0.059095     0.085541
C      0.394468    -0.324039     0.455251     -0.101824    -0.098016     0.032046
O      1.534676     0.452063    -0.050031      0.015963     0.010558    -0.012794
H     -1.651041    -0.429879    -0.294308     -0.025391    -0.027798    -0.033220
H     -0.741484     0.826478    -0.995198     -0.016400    -0.002563    -0.026489
H     -1.376082     1.064783     0.646576     -0.017145    -0.000884    -0.013226
H      0.547748    -0.202125     1.529704      0.016956     0.036848    -0.000153
H      0.563953    -1.315531     0.043301      0.026711     0.019632    -0.022369
H      1.938567     0.056104    -0.806917      0.017191     0.003171    -0.009643
9
初始采样  Outer Iteration 18, Energy=-154.0753760920, |grad|=0.177672
C     -0.879668     0.344736    -0.010313      0.067272     0.043174     0.066727
C      0.398652    -0.320011     0.453934     -0.084747    -0.078000     0.034470
O      1.534020     0.451629    -0.049505      0.016174     0.000983    -0.019958
H     -1.649997    -0.428736    -0.292943     -0.018939    -0.019505    -0.029372
H     -0.740810     0.826583    -0.994110     -0.014480    -0.003475    -0.020023
H     -1.375377     1.064819     0.647119     -0.018701     0.005192    -0.007592
H      0.547051    -0.203639     1.529710      0.015647     0.033528     0.001468
H      0.562856    -1.316338     0.044220      0.025426     0.011333    -0.024615
H      1.937861     0.055974    -0.806521      0.012349     0.006770    -0.001104
9
轮次2  Outer Iteration 0, Energy=-154.0753760920, |grad|=0.177672
C     -0.879668     0.344736    -0.010313      0.067272     0.043174     0.066727
C      0.398652    -0.320011     0.453934     -0.084747    -0.078000     0.034470
O      1.534020     0.451629    -0.049505      0.016174     0.000983    -0.019958
H     -1.649997    -0.428736    -0.292943     -0.018939    -0.019505    -0.029372
H     -0.740810     0.826583    -0.994110     -0.014480    -0.003475    -0.020023
H     -1.375377     1.064819     0.647119     -0.018701     0.005192    -0.007592
H      0.547051    -0.203639     1.529710      0.015647     0.033528     0.001468
H      0.562856    -1.316338     0.044220      0.025426     0.011333    -0.024615
H      1.937861     0.055974    -0.806521      0.012349     0.006770    -0.001104
9
轮次2  Outer Iteration 1, Energy=-154.0793564839, |grad|=0.139800
C     -0.881086     0.340642    -0.021840      0.047962     0.035617     0.048723
C      0.405906    -0.308324     0.447630     -0.066397    -0.067133     0.029942
O      1.529200     0.459816    -0.044204      0.010127     0.001523    -0.014003
H     -1.639459    -0.428645    -0.286990     -0.008454    -0.009499    -0.023379
H     -0.733671     0.824679    -0.995947     -0.011804    -0.006964    -0.012670
H     -1.357955     1.052978     0.652282     -0.013024     0.000356    -0.005798
H      0.541436    -0.206477     1.523323      0.015341     0.030620    -0.002855
H      0.551999    -1.309859     0.047107      0.019173     0.012042    -0.021674
H      1.918216     0.050207    -0.799770      0.007075     0.003438     0.001713
9
轮次2  Outer Iteration 2, Energy=-154.0822855852, |grad|=0.105254
C     -0.884700     0.337358    -0.032217      0.030407     0.027823     0.034457
C      0.413642    -0.297509     0.440958     -0.048459    -0.053942     0.024910
O      1.529709     0.465551    -0.042015      0.005512     0.002502    -0.008715
H     -1.635405    -0.432694    -0.278126     -0.002445    -0.003950    -0.018297
H     -0.729976     0.826935    -0.999172     -0.008311    -0.007433    -0.008764
H     -1.344069     1.045738     0.657204     -0.009277    -0.001569    -0.002885
H      0.530790    -0.211976     1.520023      0.013140     0.026465    -0.002649
H      0.542324    -1.307516     0.052894      0.013781     0.009536    -0.018796
H      1.912271     0.049131    -0.797957      0.005651     0.000569     0.000739
9
轮次2  Outer Iteration 3, Energy=-154.0844403415, |grad|=0.076260
C     -0.886532     0.334342    -0.041838      0.018358     0.021641     0.023523
C      0.421061    -0.288033     0.434292     -0.032146    -0.041053     0.019373
O      1.530697     0.470816    -0.040915      0.002955     0.001483    -0.008214
H     -1.633643    -0.438686    -0.267807      0.000198    -0.001879    -0.014150
H     -0.727523     0.831077    -1.002576     -0.005207    -0.006312    -0.005794
H     -1.329582     1.041378     0.659142     -0.006044    -0.002798    -0.000875
H      0.519160    -0.220734     1.516460      0.010391     0.021391    -0.002366
H      0.533730    -1.306548     0.061441      0.008628     0.007267    -0.014757
H      1.907217     0.051406    -0.796606      0.002867     0.000261     0.003261
9
轮次2  Outer Iteration 4, Energy=-154.0859403837, |grad|=0.050159
C     -0.888891     0.331416    -0.050208      0.009013     0.014881     0.014957
C      0.427389    -0.279075     0.427320     -0.019377    -0.027656     0.013628
O      1.535522     0.474625    -0.038800      0.000016     0.003146    -0.003449
H     -1.635051    -0.444450    -0.254956      0.001073    -0.000793    -0.010434
H     -0.729786     0.835818    -1.005872     -0.002687    -0.004322    -0.003221
H     -1.318161     1.039712     0.658579     -0.003943    -0.003148     0.000513
H      0.506099    -0.231921     1.512680      0.007301     0.015640    -0.001424
H      0.527448    -1.306007     0.070760      0.004525     0.004630    -0.010235
H      1.910017     0.054900    -0.797909      0.004079    -0.002378    -0.000335
9
轮次2  Outer Iteration 5, Energy=-154.0868890260, |grad|=0.030456
C     -0.887349     0.328872    -0.058506      0.004163     0.009683     0.007596
C      0.432947    -0.274432     0.421975     -0.007738    -0.016735     0.008048
O      1.535474     0.478690    -0.036324     -0.000498    -0.000564    -0.009372
H     -1.635339    -0.448371    -0.240022      0.001901    -0.000533    -0.006995
H     -0.729570     0.838193    -1.011452     -0.001048    -0.001421    -0.001307
H     -1.303204     1.043533     0.652715     -0.002513    -0.002929     0.001175
H      0.494573    -0.248436     1.509789      0.004716     0.009646    -0.000736
H      0.524372    -1.308822     0.081458      0.001178     0.002208    -0.005033
H      1.902683     0.065790    -0.798041     -0.000161     0.000644     0.006625
9
轮次2  Outer Iteration 6, Energy=-154.0874247973, |grad|=0.015357
C     -0.890140     0.325783    -0.063354     -0.000045     0.003033     0.004437
C      0.435611    -0.268151     0.415139     -0.004330    -0.005298     0.002871
O      1.547282     0.478475    -0.026163     -0.001586     0.003468     0.000757
H     -1.644021    -0.451005    -0.220641     -0.000076    -0.000500    -0.004883
H     -0.738825     0.834310    -1.017447      0.000361     0.000408     0.000699
H     -1.293642     1.049459     0.646546     -0.001938    -0.002799     0.001382
H      0.482453    -0.262086     1.504474      0.002827     0.005239    -0.000412
H      0.522596    -1.306587     0.083389     -0.000535     0.000852    -0.001349
H      1.913272     0.074819    -0.800351      0.005321    -0.004404    -0.003501
9
轮次2  Outer Iteration 7, Energy=-154.0878285725, |grad|=0.011170
C     -0.883919     0.324682    -0.068518     -0.000042     0.002205    -0.000067
C      0.437370    -0.273053     0.416213      0.001934    -0.003099     0.001931
O      1.540707     0.482325    -0.017102     -0.005083     0.002112    -0.003793
H     -1.643331    -0.448646    -0.203544      0.002011    -0.000086    -0.003079
H     -0.733097     0.823428    -1.027918      0.000470     0.002296     0.001286
H     -1.274142     1.063378     0.633973     -0.001563    -0.002347     0.001533
H      0.473679    -0.282192     1.506444      0.001740     0.002171     0.000057
H      0.523822    -1.313088     0.086385     -0.001913    -0.000601     0.001305
H      1.893499     0.098184    -0.804341      0.002445    -0.002651     0.000828
9
轮次2  Outer Iteration 8, Energy=-154.0881946567, |grad|=0.013186
C     -0.883422     0.323158    -0.070089     -0.001048     0.000158     0.000115
C      0.437594    -0.274740     0.413444      0.001362    -0.000390    -0.000330
O      1.547701     0.479926    -0.003771     -0.000083    -0.000758    -0.009008
H     -1.651097    -0.446082    -0.184523      0.000718    -0.000274    -0.002806
H     -0.737431     0.807380    -1.037831      0.000937     0.002670     0.001668
H     -1.261192     1.076421     0.623962     -0.001675    -0.002209     0.001574
H      0.467803    -0.294379     1.503781      0.001779     0.001650     0.000079
H      0.524974    -1.313322     0.078663     -0.002009    -0.000760     0.002006
H      1.889656     0.116655    -0.802044      0.000019    -0.000086     0.006703
9
轮次2  Outer Iteration 9, Energy=-154.0885688194, |grad|=0.009850
C     -0.881017     0.322137    -0.071414     -0.000911    -0.000453    -0.000019
C      0.437094    -0.278420     0.413507      0.001127     0.000533    -0.000362
O      1.550170     0.478813     0.009837     -0.001259     0.000742    -0.005677
H     -1.655998    -0.442639    -0.167091      0.000378    -0.000477    -0.002645
H     -0.738415     0.790311    -1.047705      0.001069     0.002908     0.001739
H     -1.246501     1.089835     0.613336     -0.001570    -0.002203     0.001612
H      0.461023    -0.307395     1.503678      0.001612     0.001356    -0.000022
H      0.525864    -1.314668     0.071591     -0.002123    -0.000748     0.002178
H      1.882367     0.137042    -0.804146      0.001676    -0.001658     0.003197
9
轮次2  Inner Iteration 1, |pred_grad|=0.009865
C     -0.881017     0.322137    -0.071414     -0.000808    -0.000470     0.000063
C      0.437094    -0.278420     0.413507      0.000994     0.000516    -0.000509
O      1.550170     0.478813     0.009837     -0.001258     0.000730    -0.005695
H     -1.655998    -0.442639    -0.167091      0.000355    -0.000500    -0.002658
H     -0.738415     0.790311    -1.047705      0.001074     0.002943     0.001721
H     -1.246501     1.089835     0.613336     -0.001587    -0.002197     0.001613
H      0.461023    -0.307395     1.503678      0.001620     0.001377     0.000032
H      0.525864    -1.314668     0.071591     -0.002123    -0.000736     0.002180
H      1.882367     0.137042    -0.804146      0.001677    -0.001644     0.003221
9
轮次2  Inner Iteration 2, |pred_grad|=0.009486
C     -0.880977     0.322161    -0.071417     -0.000803    -0.000396     0.000082
C      0.437045    -0.278445     0.413532      0.000960     0.000457    -0.000480
O      1.550232     0.478777     0.010119     -0.001644     0.000995    -0.005016
H     -1.656015    -0.442614    -0.166960      0.000348    -0.000510    -0.002669
H     -0.738468     0.790165    -1.047790      0.001064     0.002923     0.001731
H     -1.246423     1.089944     0.613256     -0.001577    -0.002225     0.001598
H      0.460942    -0.307463     1.503677      0.001630     0.001391    -0.000008
H      0.525969    -1.314631     0.071483     -0.002111    -0.000711     0.002176
H      1.882284     0.137124    -0.804306      0.002059    -0.001918     0.002568
9
轮次2  Inner Iteration 3, |pred_grad|=0.009287
C     -0.880937     0.322180    -0.071421     -0.000792    -0.000331     0.000106
C      0.436997    -0.278468     0.413556      0.000921     0.000403    -0.000459
O      1.550314     0.478728     0.010367     -0.001920     0.001191    -0.004519
H     -1.656032    -0.442589    -0.166827      0.000339    -0.000520    -0.002679
H     -0.738521     0.790021    -1.047876      0.001054     0.002905     0.001739
H     -1.246345     1.090054     0.613177     -0.001569    -0.002249     0.001584
H      0.460862    -0.307532     1.503677      0.001639     0.001404    -0.000042
H      0.526074    -1.314596     0.071375     -0.002100    -0.000687     0.002172
H      1.882182     0.137219    -0.804433      0.002337    -0.002119     0.002090
9
初始采样  Outer Iteration 32, Energy=-154.0885821217, |grad|=0.009079
C     -0.880898     0.322197    -0.071426     -0.000700    -0.000373     0.000000
C      0.436952    -0.278488     0.413579      0.000829     0.000521    -0.000338
O      1.550409     0.478669     0.010591     -0.001677     0.001252    -0.004376
H     -1.656049    -0.442563    -0.166695      0.000320    -0.000537    -0.002659
H     -0.738573     0.789877    -1.047962      0.001027     0.002873     0.001766
H     -1.246267     1.090166     0.613098     -0.001598    -0.002201     0.001626
H      0.460780    -0.307602     1.503679      0.001669     0.001418    -0.000111
H      0.526178    -1.314562     0.071267     -0.002004    -0.000720     0.002120
H      1.882067     0.137324    -0.804537      0.002135    -0.002232     0.001972
9
轮次3  Outer Iteration 0, Energy=-154.0885821217, |grad|=0.009079
C     -0.880898     0.322197    -0.071426     -0.000700    -0.000373     0.000000
C      0.436952    -0.278488     0.413579      0.000829     0.000521    -0.000338
O      1.550409     0.478669     0.010591     -0.001677     0.001252    -0.004376
H     -1.656049    -0.442563    -0.166695      0.000320    -0.000537    -0.002659
H     -0.738573     0.789877    -1.047962      0.001027     0.002873     0.001766
H     -1.246267     1.090166     0.613098     -0.001598    -0.002201     0.001626
H      0.460780    -0.307602     1.503679      0.001669     0.001418    -0.000111
H      0.526178    -1.314562     0.071267     -0.002004    -0.000720     0.002120
H      1.882067     0.137324    -0.804537      0.002135    -0.002232     0.001972
9
轮次3  Outer Iteration 1, Energy=-154.0889500313, |grad|=0.010142
C     -0.876501     0.322123    -0.072229      0.000088     0.001181    -0.000196
C      0.436380    -0.285552     0.415943      0.001448    -0.001920     0.001002
O      1.548063     0.478304     0.022591     -0.003586     0.001759    -0.004854
H     -1.658570    -0.436876    -0.151370      0.001211    -0.000414    -0.002734
H     -0.735858     0.771085    -1.057987      0.000709     0.002847     0.001448
H     -1.230635     1.105210     0.600968     -0.001872    -0.002020     0.001511
H      0.455769    -0.321668     1.506033      0.001651     0.001579     0.000237
H      0.527990    -1.318538     0.064592     -0.001841    -0.000804     0.001832
H      1.867960     0.160928    -0.806946      0.002194    -0.002208     0.001753
9
轮次3  Outer Iteration 2, Energy=-154.0893199341, |grad|=0.009410
C     -0.874509     0.321294    -0.072957     -0.000326     0.000707     0.000414
C      0.435800    -0.289522     0.415501      0.000861    -0.001602     0.000505
O      1.551158     0.475878     0.036102     -0.002959     0.001671    -0.004192
H     -1.663366    -0.432241    -0.134478      0.001108    -0.000301    -0.002935
H     -0.738224     0.752054    -1.067657      0.000753     0.002590     0.001287
H     -1.215839     1.118352     0.590260     -0.001750    -0.002030     0.001599
H      0.450563    -0.332934     1.505327      0.001868     0.001997     0.000253
H      0.528628    -1.319579     0.055616     -0.001808    -0.000714     0.001487
H      1.860386     0.181714    -0.806120      0.002253    -0.002319     0.001581
9
轮次3  Outer Iteration 3, Energy=-154.0896817103, |grad|=0.009013
C     -0.871785     0.320418    -0.074234      0.000005     0.000505     0.000560
C      0.435397    -0.293446     0.415326      0.000417    -0.001116     0.000520
O      1.553628     0.473896     0.048616     -0.002270     0.001864    -0.004246
H     -1.667509    -0.427760    -0.117214      0.000665    -0.000729    -0.002829
H     -0.739798     0.733980    -1.077044      0.000863     0.002649     0.001169
H     -1.200014     1.131118     0.578877     -0.001536    -0.002022     0.001630
H      0.444199    -0.345466     1.504601      0.001673     0.001797     0.000005
H      0.529329    -1.320942     0.048308     -0.001931    -0.000622     0.001559
H      1.851150     0.203218    -0.805641      0.002113    -0.002325     0.001633
9
轮次3  Outer Iteration 4, Energy=-154.0900339188, |grad|=0.008533
C     -0.869223     0.319798    -0.075467     -0.000201     0.000442     0.000409
C      0.435107    -0.298136     0.415122      0.000620    -0.000950    -0.000034
O      1.555175     0.471323     0.061214     -0.002726     0.001695    -0.003294