9
Iteration 0, Energy=-153.6998383184, |grad|=3.175948
C     -0.746564     0.324346     0.117312      0.471073    -0.147504     0.374361
C      0.280024    -0.413783     0.461858     -0.424637    -0.068326    -0.158688
O      1.608554     0.420356    -0.238282      1.173635    -0.577779    -1.803319
H     -1.764418    -0.572134    -0.298764     -0.108524    -0.104861    -0.065673
H     -0.646026     0.862935    -1.069610     -0.000220     0.069938    -0.145042
H     -1.307016     1.122371     0.637716     -0.041940     0.032245    -0.023930
H      0.489092    -0.187522     1.615250     -0.004355     0.060847     0.101478
H      0.472364    -1.327362     0.056608      0.006772     0.106411     0.017008
H      1.948577     0.245820    -0.760505     -1.071804     0.629029     1.703806
9
Iteration 1, Energy=-153.9017180070, |grad|=1.127574
C     -0.772324     0.331817     0.116271      0.405594    -0.097667     0.353563
C      0.282110    -0.409808     0.475848     -0.367227    -0.095670    -0.132335
O      1.605604     0.432184    -0.197035      0.359911    -0.148060    -0.534674
H     -1.769447    -0.564656    -0.307499     -0.106431    -0.104424    -0.066919
H     -0.667890     0.872417    -1.055915     -0.002580     0.068074    -0.141136
H     -1.340736     1.117801     0.641030     -0.040350     0.029334    -0.025834
H      0.480032    -0.192970     1.624511     -0.003651     0.057876     0.096533
H      0.486647    -1.326637     0.064873      0.011634     0.093919     0.011879
H      2.030590     0.214880    -0.840500     -0.256899     0.196619     0.438924
9
Iteration 2, Energy=-153.9755552484, |grad|=0.755709
C     -0.824368     0.354561     0.081489      0.246922     0.023578     0.275386
C      0.323856    -0.396624     0.478133     -0.240504    -0.145001    -0.039208
O      1.614655     0.430655    -0.148414      0.243597    -0.096426    -0.348437
H     -1.769580    -0.521826    -0.309098     -0.101273    -0.098424    -0.064476
H     -0.731721     0.870270    -1.041897     -0.012182     0.054011    -0.120913
H     -1.381916     1.115634     0.633561     -0.033022     0.017215    -0.029661
H      0.526312    -0.200005     1.592831      0.005205     0.049020     0.069006
H      0.536755    -1.339292     0.059876      0.026398     0.052914    -0.005820
H      2.040593     0.161654    -0.824897     -0.135142     0.143114     0.264124
9
Iteration 3, Energy=-154.0278480209, |grad|=0.491432
C     -0.837368     0.355835     0.051030      0.202823     0.052594     0.213862
C      0.343724    -0.372207     0.474115     -0.204462    -0.131201     0.003232
O      1.573366     0.443476    -0.104110      0.122048    -0.032125    -0.167002
H     -1.717649    -0.483555    -0.308345     -0.081613    -0.082938    -0.057934
H     -0.730345     0.845599    -1.013064     -0.014364     0.031670    -0.084684
H     -1.379756     1.097243     0.634779     -0.026058     0.008548    -0.026236
H      0.534939    -0.198599     1.559227      0.008329     0.043660     0.031888
H      0.551565    -1.329396     0.052846      0.029551     0.037666    -0.014561
H      1.996109     0.116633    -0.824896     -0.036255     0.072127     0.101436
9
Iteration 4, Energy=-154.0607077209, |grad|=0.311232
C     -0.858957     0.353330     0.015240      0.134853     0.062352     0.130504
C      0.371611    -0.342628     0.460660     -0.146429    -0.114738     0.021522
O      1.549616     0.449014    -0.065308      0.055378    -0.002301    -0.064554
H     -1.672318    -0.446700    -0.300454     -0.049712    -0.051532    -0.043720
H     -0.742651     0.830084    -0.998574     -0.017062     0.007622    -0.043507
H     -1.380762     1.073869     0.641883     -0.021334     0.002824    -0.017920
H      0.547143    -0.196891     1.535443      0.015079     0.039769     0.009823
H      0.563385    -1.313900     0.042648      0.028765     0.029523    -0.019000
H      1.957520     0.068850    -0.809956      0.000461     0.026482     0.026854
9
Iteration 5, Energy=-154.0780094336, |grad|=0.161832
C     -0.873142     0.343766    -0.018993      0.060666     0.039461     0.058849
C      0.398736    -0.313015     0.448185     -0.081009    -0.078000     0.025663
O      1.526170     0.464659    -0.045217      0.009912     0.011784    -0.008809
H     -1.632633    -0.427709    -0.283268     -0.008463    -0.011265    -0.023114
H     -0.729192     0.822831    -0.999671     -0.011788    -0.006073    -0.017190
H     -1.356409     1.049621     0.653106     -0.013249    -0.003046    -0.007706
H      0.535898    -0.205285     1.523843      0.014775     0.032237    -0.002037
H      0.550694    -1.309355     0.047196      0.019200     0.016155    -0.019885
H      1.914465     0.049515    -0.803597      0.009955    -0.001253    -0.005769
9
Iteration 6, Energy=-154.0852339203, |grad|=0.071015
C     -0.889940     0.331740    -0.045622      0.018169     0.016335     0.022941
C      0.421401    -0.276333     0.424577     -0.035851    -0.033018     0.012413
O      1.548529     0.473690    -0.037788      0.008007     0.012533     0.003979
H     -1.640321    -0.448184    -0.252897     -0.004979    -0.005384    -0.011911
H     -0.733095     0.832919    -1.004286     -0.001519    -0.005395    -0.004536
H     -1.324714     1.034012     0.664593     -0.004569    -0.004785     0.000545
H      0.503989    -0.220880     1.508538      0.007192     0.018517    -0.002263
H      0.521009    -1.297630     0.061540      0.004057     0.008654    -0.011203
H      1.927729     0.045693    -0.797073      0.009492    -0.007456    -0.009965
9
Iteration 7, Energy=-154.0867941558, |grad|=0.048020
C     -0.872417     0.328786    -0.072280      0.002751     0.011880    -0.007934
C      0.441044    -0.284164     0.431279      0.018493    -0.012634     0.012563
O      1.507250     0.492406    -0.028206     -0.031498     0.007356     0.005619
H     -1.623675    -0.445387    -0.217458      0.009401     0.001192    -0.001549
H     -0.713696     0.835386    -1.026204     -0.002394     0.004529     0.000526
H     -1.270614     1.064839     0.627787     -0.001423    -0.001969    -0.000029
H      0.476356    -0.291474     1.520915      0.000681    -0.000194    -0.000676
H      0.531020    -1.325167     0.104565     -0.001773    -0.001251     0.001981
H      1.859319     0.099802    -0.818816      0.005763    -0.008908    -0.010500
9
Iteration 8, Energy=-154.0881543371, |grad|=0.019819
C     -0.890604     0.321438    -0.071267     -0.006610    -0.006369     0.001318
C      0.438709    -0.269512     0.403821      0.001782     0.007802    -0.009223
O      1.559307     0.476815     0.005218     -0.001073     0.000411     0.004401
H     -1.662800    -0.442987    -0.169699     -0.000003     0.002796    -0.001848
H     -0.755707     0.804159    -1.041493      0.001184     0.003618     0.002740
H     -1.263809     1.081599     0.618210     -0.002923    -0.001764     0.000507
H      0.467588    -0.300020     1.494518      0.003271    -0.000129    -0.000138
H      0.531205    -1.311016     0.077869     -0.000388    -0.001730     0.005080
H      1.910698     0.114550    -0.795594      0.004760    -0.004635    -0.002836
9
Iteration 9, Energy=-154.0891824168, |grad|=0.013627
C     -0.877902     0.321070    -0.073102     -0.001287     0.001397    -0.001304
C      0.435963    -0.285077     0.415162     -0.001446    -0.001349     0.003388
O      1.557432     0.479341     0.030745      0.004255     0.005526    -0.005977
H     -1.667435    -0.435947    -0.134147     -0.002281    -0.002632    -0.002862
H     -0.738529     0.752429    -1.066406      0.002005     0.001769     0.001789
H     -1.218301     1.114259     0.595370     -0.000932    -0.002623     0.002894
H      0.447144    -0.329992     1.505277     -0.000074     0.001007     0.000912
H      0.523035    -1.315478     0.054798     -0.003641    -0.000883     0.001212
H      1.873180     0.174423    -0.806114      0.003402    -0.002213    -0.000052
9
Iteration 10, Energy=-154.0902565636, |grad|=0.013252
C     -0.866541     0.320709    -0.077278     -0.000457     0.004353    -0.001740
C      0.434482    -0.303418     0.416134      0.004010    -0.004451     0.001221
O      1.549072     0.473885     0.070576     -0.006281     0.001844    -0.002639
H     -1.672387    -0.418655    -0.084320      0.001260    -0.002359    -0.002289
H     -0.739884     0.697617    -1.095365      0.001193     0.002265     0.000711
H     -1.167729     1.156743     0.556717     -0.000947    -0.001727     0.002238
H      0.437233    -0.367348     1.504560      0.002776     0.003134    -0.000059
H      0.530113    -1.323688     0.030087     -0.002444    -0.000067     0.000445
H      1.830227     0.239182    -0.799528      0.000889    -0.002990     0.002111
9
Iteration 11, Energy=-154.0912049797, |grad|=0.012193
C     -0.857827     0.317077    -0.079249     -0.000160     0.001135     0.000050
C      0.434603    -0.316821     0.416713      0.001849    -0.003111     0.004307
O      1.556863     0.464996     0.100988     -0.002747     0.001456    -0.007925
H     -1.685118    -0.393489    -0.034933      0.002215     0.000914    -0.002580
H     -0.750610     0.641346    -1.117308      0.000022     0.001851     0.001525
H     -1.123459     1.192015     0.516294     -0.001785    -0.001652     0.000709
H      0.416769    -0.408311     1.502658      0.000151     0.000818    -0.000373
H      0.538177    -1.329505     0.011887     -0.001059    -0.000198     0.000780
H      1.805189     0.307720    -0.795467      0.001514    -0.001212     0.003507
9
Iteration 12, Energy=-154.0919515517, |grad|=0.010628
C     -0.851681     0.313896    -0.085481      0.001244     0.001038     0.000167
C      0.432627    -0.329173     0.410323     -0.000586    -0.000987    -0.002780
O      1.564383     0.454484     0.137098      0.000425     0.002850    -0.004765
H     -1.696777    -0.374739     0.019288     -0.001560    -0.002850    -0.000931
H     -0.762274     0.583634    -1.142622      0.001404     0.001731    -0.000549
H     -1.069444     1.223754     0.477361     -0.000126    -0.000740     0.001854
H      0.405333    -0.438984     1.495181      0.002156     0.001796     0.000733
H      0.535091    -1.335872    -0.011379     -0.002542    -0.000947     0.000859
H      1.777328     0.378026    -0.778186     -0.000416    -0.001890     0.005413
9
Iteration 13, Energy=-154.0924613320, |grad|=0.007615
C     -0.843588     0.312376    -0.088330     -0.001131    -0.000819     0.000283
C      0.433153    -0.340994     0.411417      0.001050     0.002992     0.001243
O      1.570844     0.435820     0.163184     -0.003219    -0.002651    -0.003513
H     -1.700393    -0.346596     0.065346      0.001667     0.000100    -0.001317
H     -0.775309     0.527670    -1.158590      0.000472     0.000517     0.000781
H     -1.026123     1.253578     0.434017     -0.000294    -0.000243     0.000834
H      0.387151    -0.474869     1.492371      0.000059     0.000540     0.000066
H      0.545084    -1.337045    -0.032695      0.000898     0.000642    -0.000586
H      1.743768     0.445087    -0.765138      0.000498    -0.001078     0.002210
9
Iteration 14, Energy=-154.0926489267, |grad|=0.010752
C     -0.832597     0.307158    -0.094197      0.002770    -0.000583     0.002024
C      0.434754    -0.363052     0.404232     -0.000862    -0.005934    -0.003577
O      1.575155     0.428679     0.189968      0.001309     0.005243    -0.000364
H     -1.709283    -0.308399     0.116807      0.000952     0.001631    -0.000397
H     -0.794858     0.469721    -1.175780     -0.000632     0.000798     0.000518
H     -0.972869     1.278444     0.383286     -0.001758    -0.000287    -0.000994
H      0.378631    -0.509509     1.482579      0.000548     0.000688    -0.000631
H      0.541462    -1.356928    -0.045856     -0.002600    -0.001419     0.002127
H      1.714191     0.528911    -0.739457      0.000272    -0.000136     0.001294
9
Iteration 15, Energy=-154.0927040043, |grad|=0.005262
C     -0.832653     0.307103    -0.097094      0.001444    -0.000260    -0.000411
C      0.433110    -0.362072     0.407590     -0.001833     0.002810     0.000534
O      1.579382     0.417344     0.197712      0.000611    -0.001135    -0.000161
H     -1.713146    -0.301141     0.133016     -0.001931    -0.001461     0.000662
H     -0.797404     0.448217    -1.182973      0.000083     0.000321    -0.001400
H     -0.952147     1.287500     0.368167      0.000983    -0.000113     0.000247
H      0.373708    -0.522647     1.484554      0.000689    -0.000580     0.000588
H      0.548225    -1.348013    -0.058031      0.000591     0.000653    -0.000442
H      1.695512     0.548737    -0.731357     -0.000636    -0.000234     0.000384
9
Iteration 16, Energy=-154.0927165925, |grad|=0.002198
C     -0.833747     0.308289    -0.095179     -0.001092     0.000148     0.000259
C      0.434145    -0.361668     0.405778      0.000871     0.000208    -0.000640
O      1.578178     0.420247     0.195033     -0.000468    -0.000332     0.000101
H     -1.709856    -0.304498     0.128889      0.000633     0.000098    -0.000177
H     -0.796266     0.452520    -1.179151      0.000455    -0.000580     0.000502
H     -0.960284     1.286054     0.374257      0.000046     0.000348     0.000299
H      0.371366    -0.517346     1.482867     -0.000616     0.000253    -0.000058
H      0.546853    -1.349736    -0.056498      0.000075    -0.000207    -0.000146
H      1.704196     0.541165    -0.734414      0.000096     0.000065    -0.000140
9
Iteration 17, Energy=-154.0927182807, |grad|=0.001271
C     -0.833263     0.307592    -0.095980      0.000497    -0.000338    -0.000268
C      0.434095    -0.361836     0.406731     -0.000304    -0.000472     0.000386
O      1.578216     0.420898     0.194656      0.000054     0.000273    -0.000247
H     -1.710624    -0.304298     0.127048      0.000159     0.000324    -0.000004
H     -0.797765     0.456439    -1.179769     -0.000335     0.000302     0.000025
H     -0.962087     1.284209     0.374392     -0.000208    -0.000200    -0.000156
H      0.374277    -0.517274     1.484010      0.000216    -0.000040     0.000037
H      0.546720    -1.349997    -0.054626     -0.000189     0.000110     0.000096
H      1.705018     0.539294    -0.734879      0.000111     0.000042     0.000130
9
Iteration 18, Energy=-154.0927193061, |grad|=0.000325
C     -0.833392     0.307803    -0.095650      0.000136     0.000045     0.000127
C      0.434052    -0.361924     0.406520     -0.000067     0.000039    -0.000071
O      1.578242     0.420506     0.195164      0.000070     0.000036    -0.000029
H     -1.711111    -0.303845     0.128154     -0.000154    -0.000090     0.000000
H     -0.796897     0.454142    -1.179809      0.000022     0.000012    -0.000036
H     -0.960186     1.285425     0.373444      0.000011     0.000021    -0.000042
H      0.373447    -0.518225     1.483608      0.000010    -0.000030    -0.000050
H      0.547252    -1.349861    -0.055458      0.000031     0.000003     0.000043
H      1.703179     0.541005    -0.734389     -0.000059    -0.000036     0.000057
