14
初始采样  Outer Iteration 1, Energy=-156.9583792877, |grad|=2.142834
C      2.096986     0.199975     0.470875      0.158256    -0.139532     0.330066
C      0.366498     0.446752     0.192613     -0.327529    -0.318365    -0.011432
C     -0.284023    -0.731506    -0.105887      0.400806    -0.837805    -1.146582
C     -1.923584    -0.164116    -0.191850     -0.117031    -0.151203    -0.062574
H      2.543828     1.199897     0.583472     -0.002089     0.028466    -0.021986
H      2.234327    -0.088631    -0.695808     -0.041971     0.009491    -0.125486
H      2.097623    -0.481292     1.189073     -0.040581     0.122059    -0.119329
H      0.296077     1.142927    -0.751180     -0.019828     0.035541    -0.068938
H      0.365452     1.290602     1.133094      0.083441     0.124007     0.086632
H     -0.459634    -1.183996     0.879602     -0.029841     0.045980     0.014253
H     -0.262448    -1.241963    -0.646219     -0.118635     0.912432     1.026874
H     -2.433515     0.051899     0.803017     -0.023731     0.058778     0.035778
H     -1.688241     1.002476    -0.375666      0.051009     0.104360     0.036473
H     -2.516774    -0.687364    -0.900452      0.027724     0.005791     0.026251
14
初始采样  Outer Iteration 2, Energy=-157.0246519043, |grad|=1.635705
C      2.097423     0.202216     0.469967      0.157203    -0.129357     0.316313
C      0.370468     0.456636     0.195290     -0.320963    -0.303323    -0.008768
C     -0.288220    -0.726083    -0.100518      0.378853    -0.582131    -0.859847
C     -1.926773    -0.163283    -0.189022     -0.115459    -0.148877    -0.059543
H      2.549790     1.198774     0.582125     -0.002300     0.027131    -0.022406
H      2.240922    -0.088969    -0.690957     -0.040293     0.009756    -0.122726
H      2.099707    -0.483078     1.192982     -0.040086     0.111836    -0.109063
H      0.303270     1.151048    -0.746470     -0.018421     0.035065    -0.066971
H      0.368095     1.296374     1.132135      0.082796     0.122224     0.084716
H     -0.463547    -1.178041     0.885322     -0.030486     0.046274     0.013983
H     -0.264383    -1.271018    -0.677172     -0.104004     0.646472     0.739310
H     -2.435476     0.050645     0.804685     -0.022660     0.058125     0.034118
H     -1.699323     1.000335    -0.376085      0.049101     0.101861     0.036360
H     -2.519380    -0.689897    -0.897598      0.026719     0.004942     0.024523
14
初始采样  Outer Iteration 3, Energy=-157.0743880096, |grad|=1.300286
C      2.097476     0.204192     0.466564      0.155203    -0.114595     0.294671
C      0.376992     0.470919     0.198053     -0.309498    -0.278060    -0.005357
C     -0.294835    -0.718634    -0.094162      0.358032    -0.417296    -0.665046
C     -1.931396    -0.163694    -0.186668     -0.113373    -0.144582    -0.055087
H      2.558692     1.195112     0.579271     -0.002669     0.024958    -0.023029
H      2.251869    -0.090148    -0.684507     -0.037473     0.010358    -0.117669
H      2.102987    -0.488101     1.196316     -0.039232     0.096732    -0.093795
H      0.315040     1.163167    -0.739428     -0.016144     0.034150    -0.063321
H      0.371322     1.302257     1.129448      0.081535     0.118853     0.081486
H     -0.469502    -1.171011     0.891741     -0.031626     0.045684     0.014174
H     -0.267597    -1.293417    -0.703455     -0.094574     0.465590     0.543517
H     -2.438095     0.045356     0.805304     -0.020828     0.056966     0.031394
H     -1.717505     0.994835    -0.378008      0.045837     0.097429     0.036261
H     -2.522875    -0.695175    -0.895784      0.024811     0.003813     0.021800
14
初始采样  Outer Iteration 4, Energy=-157.1129146231, |grad|=1.061911
C      2.096414     0.205932     0.462092      0.152522    -0.100466     0.271950
C      0.384116     0.485980     0.200653     -0.297363    -0.251198    -0.002206
C     -0.302081    -0.710342    -0.087265      0.339083    -0.300611    -0.521179
C     -1.935579    -0.164062    -0.184391     -0.110945    -0.139180    -0.050242
H      2.567344     1.190515     0.575955     -0.003100     0.022585    -0.023666
H      2.263504    -0.091790    -0.677293     -0.034350     0.011124    -0.111364
H      2.106066    -0.493797     1.198472     -0.038186     0.082038    -0.079068
H      0.327947     1.175764    -0.731672     -0.013662     0.032796    -0.058849
H      0.373609     1.306894     1.125744      0.079905     0.114490     0.077407
H     -0.475722    -1.163637     0.898456     -0.032879     0.044847     0.014463
H     -0.270376    -1.312345    -0.727115     -0.087297     0.333266     0.399420
H     -2.439959     0.038965     0.805696     -0.018686     0.055593     0.028278
H     -1.736983     0.988267    -0.380406      0.042228     0.091998     0.036188
H     -2.525729    -0.700684    -0.894240      0.022728     0.002717     0.018869
14
初始采样  Outer Iteration 5, Energy=-157.1434168933, |grad|=0.891323
C      2.094167     0.207394     0.456546      0.149076    -0.087156     0.248241
C      0.391853     0.501618     0.203030     -0.284552    -0.222993     0.000732
C     -0.309936    -0.701237    -0.079859      0.321299    -0.219503    -0.414904
C     -1.939255    -0.164383    -0.182231     -0.108114    -0.132700    -0.045168
H      2.575608     1.184986     0.572251     -0.003570     0.020081    -0.024292
H      2.275581    -0.093955    -0.669438     -0.031013     0.012063    -0.103763
H      2.108870    -0.500160     1.199333     -0.036907     0.067910    -0.065072
H      0.341955     1.188697    -0.723372     -0.010992     0.030988    -0.053586
H      0.374860     1.310167     1.121070      0.077884     0.109010     0.072364
H     -0.482113    -1.156008     0.905406     -0.034199     0.043786     0.014746
H     -0.272519    -1.327220    -0.747620     -0.081517     0.237262     0.293910
H     -2.441068     0.031440     0.805892     -0.016265     0.054001     0.024852
H     -1.757621     0.980715    -0.383342      0.038331     0.085542     0.036134
H     -2.527811    -0.706393    -0.892981      0.020539     0.001707     0.015805
14
轮次1  Outer Iteration 0, Energy=-157.1434168933, |grad|=0.891323
C      2.094167     0.207394     0.456546      0.149076    -0.087156     0.248241
C      0.391853     0.501618     0.203030     -0.284552    -0.222993     0.000732
C     -0.309936    -0.701237    -0.079859      0.321299    -0.219503    -0.414904
C     -1.939255    -0.164383    -0.182231     -0.108114    -0.132700    -0.045168
H      2.575608     1.184986     0.572251     -0.003570     0.020081    -0.024292
H      2.275581    -0.093955    -0.669438     -0.031013     0.012063    -0.103763
H      2.108870    -0.500160     1.199333     -0.036907     0.067910    -0.065072
H      0.341955     1.188697    -0.723372     -0.010992     0.030988    -0.053586
H      0.374860     1.310167     1.121070      0.077884     0.109010     0.072364
H     -0.482113    -1.156008     0.905406     -0.034199     0.043786     0.014746
H     -0.272519    -1.327220    -0.747620     -0.081517     0.237262     0.293910
H     -2.441068     0.031440     0.805892     -0.016265     0.054001     0.024852
H     -1.757621     0.980715    -0.383342      0.038331     0.085542     0.036134
H     -2.527811    -0.706393    -0.892981      0.020539     0.001707     0.015805
14
轮次1  Outer Iteration 1, Energy=-157.1680441381, |grad|=0.756363
C      2.091870     0.208703     0.451158      0.145400    -0.075463     0.225948
C      0.399464     0.516788     0.205307     -0.272440    -0.196615     0.003537
C     -0.317620    -0.691847    -0.072305      0.304253    -0.152795    -0.325066
C     -1.942920    -0.164518    -0.179984     -0.105385    -0.126226    -0.040388
H      2.583596     1.179357     0.568830     -0.004009     0.017701    -0.024869
H      2.287302    -0.096419    -0.661711     -0.027793     0.012986    -0.096070
H      2.111569    -0.506293     1.199851     -0.035467     0.055300    -0.052733
H      0.355768     1.201295    -0.715484     -0.008434     0.029111    -0.048403
H      0.375673     1.313414     1.116656      0.075732     0.103328     0.067102
H     -0.488221    -1.148153     0.912473     -0.035494     0.042795     0.015071
H     -0.273794    -1.342264    -0.768624     -0.075521     0.157538     0.205304
H     -2.442328     0.024048     0.806338     -0.013954     0.052431     0.021574
H     -1.778181     0.973551    -0.386294      0.034613     0.079067     0.036059
H     -2.529608    -0.712002    -0.891527      0.018498     0.000842     0.012933
14
轮次1  Outer Iteration 2, Energy=-157.1883348216, |grad|=0.665750
C      2.086746     0.209513     0.443621      0.140265    -0.064830     0.201410
C      0.407978     0.532259     0.207022     -0.258779    -0.167433     0.006197
C     -0.326317    -0.681562    -0.064038      0.288090    -0.118389    -0.269001
C     -1.944828    -0.164376    -0.178102     -0.101588    -0.117749    -0.035377
H      2.589920     1.172295     0.564694     -0.004488     0.015210    -0.025346
H      2.298899    -0.099698    -0.653099     -0.024414     0.014239    -0.086012
H      2.113317    -0.513429     1.197582     -0.033738     0.043340    -0.041323
H      0.371028     1.213707    -0.706794     -0.005536     0.026363    -0.041833
H      0.374029     1.313175     1.110258      0.072914     0.095418     0.059928
H     -0.494262    -1.140584     0.919650     -0.036732     0.041392     0.015078
H     -0.273787    -1.347821    -0.781299     -0.071710     0.111130     0.152537
H     -2.441399     0.014786     0.806309     -0.011111     0.050418     0.017870
H     -1.799350     0.964745    -0.390321      0.030479     0.070736     0.035998
H     -2.529403    -0.717351    -0.890799      0.016348     0.000155     0.009875
14
轮次1  Outer Iteration 3, Energy=-157.2056783120, |grad|=0.592089
C      2.079723     0.210141     0.435627      0.134219    -0.056403     0.178130
C      0.416319     0.546234     0.208394     -0.245390    -0.139940     0.008934
C     -0.334915    -0.671270    -0.055462      0.272463    -0.093298    -0.224276
C     -1.944989    -0.163455    -0.176156     -0.097250    -0.108751    -0.030857
H      2.593993     1.165258     0.560822     -0.004881     0.013046    -0.025612
H      2.308535    -0.103339    -0.644729     -0.021418     0.015530    -0.075377
H      2.113919    -0.519950     1.193735     -0.031911     0.033477    -0.032208
H      0.385613     1.224531    -0.698655     -0.002723     0.023267    -0.035159
H      0.370468     1.310694     1.103487      0.069853     0.086465     0.051833
H     -0.499371    -1.133483     0.926891     -0.037747     0.040015     0.014888
H     -0.272044    -1.350474    -0.791196     -0.067996     0.076585     0.112290
H     -2.438983     0.005808     0.806535     -0.008306     0.048265     0.014440
H     -1.818346     0.956455    -0.394623      0.026602     0.062008     0.035862
H     -2.527350    -0.721492    -0.889984      0.014485    -0.000267     0.007112
14
轮次1  Outer Iteration 4, Energy=-157.2206862296, |grad|=0.530257
C      2.071347     0.210565     0.427254      0.127217    -0.049453     0.155821
C      0.424665     0.558914     0.209447     -0.231726    -0.113910     0.011876
C     -0.343545    -0.660968    -0.046672      0.256878    -0.075726    -0.188674
C     -1.943957    -0.162011    -0.174250     -0.092398    -0.099553    -0.026862
H      2.596497     1.158118     0.557272     -0.005173     0.011170    -0.025663
H      2.316710    -0.107445    -0.636895     -0.018735     0.016766    -0.064527
H      2.113800    -0.526101     1.188622     -0.029952     0.025133    -0.024750
H      0.399696     1.234144    -0.691215      0.000015     0.019997    -0.028614
H      0.365373     1.306667     1.096782      0.066551     0.076744     0.043114
H     -0.503629    -1.126882     0.934140     -0.038525     0.038593     0.014555
H     -0.268766    -1.350012    -0.798140     -0.064363     0.051559     0.082158
H     -2.435781    -0.003200     0.806902     -0.005600     0.045969     0.011361
H     -1.835939     0.948744    -0.399374      0.022965     0.053167     0.035589
H     -2.523899    -0.724872    -0.889189      0.012845    -0.000456     0.004618
14
轮次1  Outer Iteration 5, Energy=-157.2337937414, |grad|=0.476593
C      2.061786     0.210828     0.418678      0.119174    -0.043756     0.134872
C      0.432911     0.570043     0.210196     -0.217670    -0.089977     0.014938
C     -0.352140    -0.650842    -0.037739      0.241125    -0.063067    -0.159581
C     -1.941771    -0.159981    -0.172356     -0.087015    -0.090463    -0.023426
H      2.597452     1.151033     0.554173     -0.005339     0.009616    -0.025460
H      2.323308    -0.112011    -0.629875     -0.016366     0.017826    -0.053933
H      2.113074    -0.531704     1.182431     -0.027895     0.018265    -0.018858
H      0.412901     1.242355    -0.684701      0.002624     0.016695    -0.022481
H      0.358734     1.301325     1.090517      0.063033     0.066641     0.034199
H     -0.506828    -1.120939     0.941369     -0.038999     0.037140     0.014111
H     -0.263904    -1.347006    -0.802484     -0.060667     0.033380     0.059339
H     -2.432017    -0.012026     0.807414     -0.003079     0.043538     0.008741
H     -1.851813     0.941959    -0.404577      0.019632     0.044590     0.035109
H     -2.519124    -0.727377    -0.888359      0.011443    -0.000427     0.002431
14
轮次1  Outer Iteration 6, Energy=-157.2453065892, |grad|=0.428803
C      2.051383     0.210954     0.410045      0.110016    -0.038938     0.115536
C      0.441050     0.579569     0.210667     -0.202978    -0.068649     0.017903
C     -0.360705    -0.640982    -0.028748      0.224979    -0.053766    -0.135411
C     -1.938669    -0.157405    -0.170479     -0.081101    -0.081792    -0.020525
H      2.597167     1.144044     0.551611     -0.005365     0.008371    -0.024981
H      2.328473    -0.117058    -0.623881     -0.014247     0.018588    -0.044039
H      2.112001    -0.536710     1.175411     -0.025752     0.012700    -0.014301
H      0.424999     1.249179    -0.679257      0.005055     0.013511    -0.017003
H      0.350692     1.295048     1.085040      0.059290     0.056631     0.025635
H     -0.508846    -1.115731     0.948537     -0.039118     0.035642     0.013607
H     -0.257547    -1.341831    -0.804509     -0.056838     0.020314     0.042036
H     -2.428109    -0.020624     0.808006     -0.000815     0.040978     0.006633
H     -1.866054     0.936291    -0.410273      0.016616     0.036625     0.034353
H     -2.513263    -0.729086    -0.887484      0.010257    -0.000214     0.000560
14
轮次1  Outer Iteration 7, Energy=-157.2554511291, |grad|=0.385268
C      2.040533     0.210953     0.401491      0.099728    -0.034674     0.098015
C      0.449051     0.587508     0.210888     -0.187446    -0.050392     0.020464
C     -0.369244    -0.631454    -0.019781      0.208288    -0.046720    -0.115074
C     -1.934926    -0.154317    -0.168617     -0.074676    -0.073773    -0.018087
H      2.596016     1.137163     0.549641     -0.005244     0.007398    -0.024215
H      2.332419    -0.122601    -0.619026     -0.012293     0.018951    -0.035202
H      2.110880    -0.541088     1.167824     -0.023531     0.008280    -0.010867
H      0.435724     1.254665    -0.674960      0.007246     0.010567    -0.012353
H      0.341376     1.288176     1.080590      0.055286     0.047191     0.017969
H     -0.509553    -1.111314     0.955588     -0.038829     0.034086     0.013088
H     -0.249814    -1.334851    -0.804505     -0.052829     0.011091     0.028946
H     -2.424493    -0.028948     0.808588      0.001136     0.038298     0.005040
H     -1.878802     0.931850    -0.416483      0.013907     0.029555     0.033270
H     -2.506596    -0.730083    -0.886552      0.009256     0.000142    -0.000997
14
轮次1  Outer Iteration 8, Energy=-157.2643983190, |grad|=0.344739
C      2.029684     0.210826     0.393140      0.088409    -0.030699     0.082412
C      0.456882     0.593967     0.210886     -0.170946    -0.035477     0.022334
C     -0.377769    -0.622280    -0.010919      0.190967    -0.041170    -0.097824
C     -1.930859    -0.150760    -0.166771     -0.067796    -0.066528    -0.016016
H      2.594454     1.130358     0.548294     -0.004975     0.006639    -0.023164
H      2.335418    -0.128651    -0.615313     -0.010427     0.018855    -0.027634
H      2.110030    -0.544839     1.159931     -0.021234     0.004843    -0.008346
H      0.444813     1.258929    -0.671809      0.009125     0.007951    -0.008620
H      0.330947     1.280995     1.077259      0.050970     0.038697     0.011629
H     -0.508829    -1.107708     0.962455     -0.038084     0.032454     0.012594
H     -0.240867    -1.326368    -0.802755     -0.048617     0.004778     0.019130
H     -2.421612    -0.036979     0.809051      0.002734     0.035508     0.003922
H     -1.890277     0.928645    -0.423208      0.011478     0.023555     0.031832
H     -2.499444    -0.730475    -0.885555      0.008396     0.000595    -0.002249
14
轮次1  Outer Iteration 9, Energy=-157.2722756456, |grad|=0.306240
C      2.019283     0.210561     0.385092      0.076302    -0.026850     0.068712
C      0.464496     0.599135     0.210694     -0.153477    -0.023906     0.023332
C     -0.386286    -0.613441    -0.002226      0.172998    -0.036583    -0.083124
C     -1.926786    -0.146775    -0.164937     -0.060553    -0.060054    -0.014208
H      2.592961     1.123570     0.547579     -0.004566     0.006028    -0.021840
H      2.337744    -0.135219    -0.612655     -0.008599     0.018289    -0.021394
H      2.109731    -0.547989     1.151987     -0.018864     0.002239    -0.006546
H      0.452003     1.262140    -0.669730      0.010608     0.005709    -0.005807
H      0.319593     1.273727     1.074984      0.046300     0.031346     0.006814
H     -0.506558    -1.104910     0.969056     -0.036837     0.030727     0.012149
H     -0.230886    -1.316635    -0.799534     -0.044194     0.000668     0.011882
H     -2.419879    -0.044723     0.809283      0.003952     0.032619     0.003204
H     -1.900724     0.926597    -0.430428      0.009293     0.018668     0.030041
H     -2.492121    -0.730380    -0.884480      0.007636     0.001100    -0.003215
14
轮次1  Inner Iteration 1, |pred_grad|=0.306427
C      2.019283     0.210561     0.385092      0.076366    -0.026878     0.068716
C      0.464496     0.599135     0.210694     -0.153610    -0.023807     0.023352
C     -0.386286    -0.613441    -0.002226      0.173129    -0.036594    -0.083165
C     -1.926786    -0.146775    -0.164937     -0.060598    -0.060062    -0.014223
H      2.592961     1.123570     0.547579     -0.004567     0.006034    -0.021843
H      2.337744    -0.135219    -0.612655     -0.008615     0.018295    -0.021366
H      2.109731    -0.547989     1.151987     -0.018883     0.002240    -0.006550
H      0.452003     1.262140    -0.669730      0.010628     0.005701    -0.005785
H      0.319593     1.273727     1.074984      0.046340     0.031315     0.006768
H     -0.506558    -1.104910     0.969056     -0.036840     0.030742     0.012148
H     -0.230886    -1.316635    -0.799534     -0.044213     0.000680     0.011901
H     -2.419879    -0.044723     0.809283      0.003965     0.032640     0.003201
H     -1.900724     0.926597    -0.430428      0.009304     0.018642     0.030047
H     -2.492121    -0.730380    -0.884480      0.007642     0.001099    -0.003219
14
轮次1  Inner Iteration 2, |pred_grad|=0.285476
C      2.011647     0.213249     0.378221      0.070087    -0.024678     0.062132
C      0.479857     0.601515     0.208359     -0.144418    -0.018832     0.023667
C     -0.403599    -0.609781     0.006091      0.163223    -0.032168    -0.071615
C     -1.920726    -0.140769    -0.163515     -0.056877    -0.057186    -0.013332
H      2.593418     1.122966     0.549763     -0.004337     0.005752    -0.021157
H      2.338605    -0.137048    -0.610518     -0.007661     0.017873    -0.018798
H      2.111619    -0.548213     1.152642     -0.017657     0.000876    -0.005562
H      0.450940     1.261570    -0.669152      0.011289     0.004758    -0.004748
H      0.314959     1.270596     1.074307      0.043908     0.028095     0.004906
H     -0.502874    -1.107984     0.967841     -0.036128     0.029888     0.011980
H     -0.226464    -1.316703    -0.800724     -0.041532    -0.004406     0.004665
H     -2.420275    -0.047987     0.808963      0.004435     0.031163     0.002970
H     -1.901655     0.924733    -0.433433      0.008254     0.016646     0.029088
H     -2.492885    -0.730489    -0.884158      0.007272     0.001333    -0.003651
14
轮次1  Inner Iteration 3, |pred_grad|=0.267706
C      2.004638     0.215717     0.372007      0.064372    -0.022780     0.056473
C      0.494299     0.603399     0.205992     -0.136056    -0.014875     0.023778
C     -0.419922    -0.606565     0.013252      0.154333    -0.029352    -0.062929
C     -1.915039    -0.135050    -0.162182     -0.053488    -0.054698    -0.012579
H      2.593851     1.122391     0.551879     -0.004121     0.005528    -0.020560
H      2.339372    -0.138836    -0.608638     -0.006814     0.017428    -0.016683
H      2.113385    -0.548300     1.153199     -0.016544    -0.000177    -0.004838
H      0.449811     1.261094    -0.668677      0.011829     0.003962    -0.003957
H      0.310568     1.267786     1.073817      0.041681     0.025368     0.003492
H     -0.499261    -1.110973     0.966643     -0.035462     0.029106     0.011838
H     -0.222311    -1.316262    -0.801191     -0.039227    -0.007597    -0.000233
H     -2.420719    -0.051103     0.808666      0.004803     0.029819     0.002831
H     -1.902480     0.923068    -0.436342      0.007343     0.015014     0.028233
H     -2.493612    -0.730623    -0.883793      0.006959     0.001538    -0.003994
14
轮次1  Inner Iteration 4, |pred_grad|=0.252498
C      1.998201     0.217995     0.366360      0.059217    -0.021145     0.051578
C      0.507904     0.604886     0.203614     -0.128495    -0.011721     0.023750
C     -0.435355    -0.603629     0.019545      0.146379    -0.027788    -0.056523
C     -1.909690    -0.129580    -0.160924     -0.050422    -0.052537    -0.011941
H      2.594263     1.121838     0.553935     -0.003929     0.005349    -0.020063
H      2.340053    -0.140578    -0.606970     -0.006063     0.016988    -0.014935
H      2.115039    -0.548283     1.153682     -0.015538    -0.000989    -0.004314
H      0.448628     1.260698    -0.668281      0.012272     0.003286    -0.003356
H      0.306400     1.265250     1.073468      0.039659     0.023049     0.002428
H     -0.495715    -1.113883     0.965459     -0.034876     0.028395     0.011719
H     -0.218388    -1.315503    -0.801167     -0.037266    -0.009373    -0.003345
H     -2.421199    -0.054085     0.808383      0.005092     0.028602     0.002759
H     -1.903214     0.921567    -0.439165      0.006549     0.013678     0.027498
H     -2.494308    -0.730777    -0.883394      0.006691     0.001713    -0.004267
14
轮次1  Inner Iteration 5, |pred_grad|=0.239380
C      1.992279     0.220109     0.361202      0.054591    -0.019736     0.047317
C      0.520754     0.606058     0.201239     -0.121677    -0.009200     0.023628
C     -0.449993    -0.600851     0.025197      0.139263    -0.027159    -0.051899
C     -1.904648    -0.124327    -0.159730     -0.047655    -0.050651    -0.011396
H      2.594656     1.121303     0.555941     -0.003763     0.005206    -0.019665
H      2.340659    -0.142277    -0.605476     -0.005395     0.016569    -0.013485
H      2.116593    -0.548184     1.154114     -0.014629    -0.001615    -0.003943
H      0.447401     1.260369    -0.667946      0.012637     0.002711    -0.002906
H      0.302434     1.262945     1.073225      0.037831     0.021069     0.001637
H     -0.492227    -1.116723     0.964287     -0.034379     0.027750     0.011620
H     -0.214662    -1.314565    -0.800833     -0.035605    -0.010117    -0.005124
H     -2.421708    -0.056945     0.808107      0.005317     0.027501     0.002737
H     -1.903869     0.920199    -0.441915      0.005853     0.012580     0.026881
H     -2.494977    -0.730948    -0.882967      0.006463     0.001858    -0.004484
14
初始采样  Outer Iteration 20, Energy=-157.2932205700, |grad|=0.117897
C      1.986820     0.222083     0.356471     -0.011875     0.006978    -0.001317
C      0.532921     0.606978     0.198877      0.019898     0.005170    -0.009033
C     -0.463919    -0.598135     0.030387     -0.008061    -0.028712     0.014036
C     -1.899882    -0.119262    -0.158590      0.030373    -0.002918    -0.002948
H      2.595033     1.120783     0.557908      0.006079     0.015873    -0.010400
H      2.341199    -0.143934    -0.604128     -0.011407     0.019895    -0.000717
H      2.118056    -0.548022     1.154508     -0.006101    -0.023608     0.023108
H      0.446138     1.260098    -0.667655      0.003211    -0.004233     0.008279
H      0.298651     1.260838     1.073061      0.020834     0.026931     0.017493
H     -0.488789    -1.119498     0.963125     -0.020257     0.036031    -0.020271
H     -0.211101    -1.313554    -0.800321     -0.011831    -0.032222    -0.031897
H     -2.422240    -0.059695     0.807833      0.001967     0.019546     0.007727
H     -1.904454     0.918941    -0.444603      0.004528    -0.017266     0.032164
H     -2.495623    -0.731134    -0.882519     -0.017358    -0.021467    -0.026224
14
轮次2  Outer Iteration 0, Energy=-157.2932205700, |grad|=0.117897
C      1.986820     0.222083     0.356471     -0.011875     0.006978    -0.001317
C      0.532921     0.606978     0.198877      0.019898     0.005170    -0.009033
C     -0.463919    -0.598135     0.030387     -0.008061    -0.028712     0.014036
C     -1.899882    -0.119262    -0.158590      0.030373    -0.002918    -0.002948
H      2.595033     1.120783     0.557908      0.006079     0.015873    -0.010400
H      2.341199    -0.143934    -0.604128     -0.011407     0.019895    -0.000717
H      2.118056    -0.548022     1.154508     -0.006101    -0.023608     0.023108
H      0.446138     1.260098    -0.667655      0.003211    -0.004233     0.008279
H      0.298651     1.260838     1.073061      0.020834     0.026931     0.017493
H     -0.488789    -1.119498     0.963125     -0.020257     0.036031    -0.020271
H     -0.211101    -1.313554    -0.800321     -0.011831    -0.032222    -0.031897
H     -2.422240    -0.059695     0.807833      0.001967     0.019546     0.007727
H     -1.904454     0.918941    -0.444603      0.004528    -0.017266     0.032164
H     -2.495623    -0.731134    -0.882519     -0.017358    -0.021467    -0.026224
14
轮次2  Outer Iteration 1, Energy=-157.2986966960, |grad|=0.077277
C      1.985820     0.213704     0.351879     -0.003502    -0.000351     0.008236
C      0.523878     0.607807     0.198509      0.003626     0.003122    -0.000706
C     -0.456159    -0.586737     0.036793      0.008598    -0.023511    -0.004677
C     -1.903894    -0.114553    -0.158928      0.013763    -0.013458    -0.007842
H      2.596745     1.102428     0.560436      0.003160     0.009451    -0.010111
H      2.352980    -0.159284    -0.605278     -0.005413     0.015480    -0.002662
H      2.120320    -0.550288     1.138741     -0.004871    -0.013833     0.012123
H      0.433813     1.264139    -0.669571      0.001465    -0.001582     0.004851
H      0.272248     1.248188     1.066078      0.015382     0.018788     0.009393
H     -0.468091    -1.119510     0.977860     -0.016395     0.025520    -0.005271
H     -0.186457    -1.285964    -0.781772     -0.010452    -0.019742    -0.018599
H     -2.431786    -0.067594     0.802291      0.001996     0.017030     0.005070
H     -1.923857     0.929655    -0.456850      0.001683    -0.005317     0.025469
H     -2.482752    -0.725502    -0.875835     -0.009042    -0.011597    -0.015274
14
轮次2  Outer Iteration 2, Energy=-157.3019565937, |grad|=0.057139
C      1.982707     0.206242     0.345548     -0.000211    -0.004735     0.011722
C      0.518579     0.611348     0.198522     -0.005352    -0.001697     0.003792
C     -0.451794    -0.570564     0.045750      0.017516    -0.016198    -0.012441
C     -1.907476    -0.109819    -0.157119      0.002748    -0.017272    -0.010501
H      2.600843     1.083834     0.563228      0.001456     0.005213    -0.008440
H      2.355294    -0.177251    -0.607445     -0.001752     0.011521    -0.002898
H      2.118220    -0.553910     1.124828     -0.003655    -0.006462     0.004110
H      0.426965     1.269830    -0.670403      0.000670    -0.000230     0.002638
H      0.252379     1.238929     1.061997      0.010180     0.010832     0.002864
H     -0.447904    -1.115591     0.987365     -0.012507     0.019002     0.001267
H     -0.163481    -1.254664    -0.764195     -0.008427    -0.009078    -0.007574
H     -2.442855    -0.080536     0.798234      0.001962     0.013117     0.003165
H     -1.941082     0.933910    -0.471641      0.000279     0.000059     0.019359
H     -2.467585    -0.725270    -0.870315     -0.002906    -0.004072    -0.007062
14
轮次2  Outer Iteration 3, Energy=-157.3038050227, |grad|=0.042284
C      1.979869     0.201776     0.338362      0.000127    -0.005407     0.009455
C      0.516695     0.619282     0.199205     -0.006708    -0.002640     0.003821
C     -0.451476    -0.557131     0.055693      0.016308    -0.010425    -0.012201
C     -1.910495    -0.104503    -0.153521     -0.001385    -0.014339    -0.008806
H      2.608245     1.067837     0.565088      0.000658     0.002716    -0.005912
H      2.352789    -0.196052    -0.609632      0.000458     0.007828    -0.002391
H      2.114498    -0.556625     1.115630     -0.002040    -0.003335     0.000768
H      0.421545     1.278609    -0.670121      0.000267     0.000659     0.001261
H      0.240631     1.237654     1.062805      0.005422     0.006255     0.000399
H     -0.428672    -1.117584     0.992906     -0.008426     0.012937     0.004528