9
Iteration 0, Energy=-154.0791133506, |grad|=0.157325
C     -0.955964     0.056819     0.047139      0.052344     0.016252     0.009877
C      0.489892    -0.328419    -0.195930      0.014251     0.027987     0.000528
O      1.268139     0.332107     0.739696     -0.085885    -0.060028    -0.000872
H     -1.352851     0.724387    -0.723824     -0.002377    -0.001509     0.000819
H     -1.586672    -0.868323     0.015396     -0.008790    -0.033674    -0.008955
H     -1.077363     0.592524     1.011658     -0.005849     0.025669     0.017414
H      0.786045    -0.144784    -1.233537     -0.003865    -0.005645    -0.003381
H      0.582818    -1.430267    -0.046703     -0.009728    -0.029744    -0.002415
H      1.831611     1.053529     0.382976      0.049899     0.060692    -0.013015
9
Iteration 1, Energy=-154.0833144004, |grad|=0.098060
C     -1.007426     0.039685     0.034422     -0.012233    -0.016040     0.002443
C      0.486947    -0.293833    -0.144587     -0.005693     0.023210     0.013113
O      1.387266     0.325710     0.745482      0.050330     0.033738    -0.029822
H     -1.382166     0.712061    -0.744190     -0.005724    -0.003239    -0.003086
H     -1.643561    -0.845852    -0.005257     -0.006349     0.004766    -0.003041
H     -1.149587     0.532794     0.990765      0.004151     0.000102    -0.009400
H      0.786182    -0.082054    -1.174816      0.000432     0.000467     0.001460
H      0.633632    -1.366011    -0.006064      0.003747     0.001838    -0.000234
H      1.874367     0.965072     0.301113     -0.028662    -0.044843     0.028567
9
Iteration 2, Energy=-154.0856508374, |grad|=0.021381
C     -0.985626     0.046993     0.039375      0.001063    -0.004071     0.009143
C      0.489020    -0.321079    -0.166079      0.005128     0.006859     0.000244
O      1.327574     0.331621     0.753248     -0.008022    -0.007222     0.004754
H     -1.353475     0.727918    -0.733627     -0.002382    -0.002499    -0.001866
H     -1.623930    -0.838290     0.006903      0.000219     0.000109    -0.001927
H     -1.111950     0.543212     1.001789     -0.000441     0.005093    -0.002721
H      0.793832    -0.113308    -1.196098     -0.000966    -0.001394    -0.000735
H      0.621947    -1.396157    -0.025869     -0.000984    -0.001299    -0.003933
H      1.828262     1.006662     0.317228      0.006384     0.004425    -0.002959
9
Iteration 3, Energy=-154.0861121244, |grad|=0.013383
C     -0.982470     0.048850     0.032716     -0.000840     0.001020     0.001669
C      0.487670    -0.336356    -0.162704      0.002318    -0.003655     0.002054
O      1.321852     0.340142     0.745405     -0.001188     0.005467    -0.002375
H     -1.329232     0.758126    -0.723495     -0.001008    -0.001415    -0.002327
H     -1.634483    -0.825443    -0.006659      0.001187     0.000435     0.002853
H     -1.097516     0.512372     1.012415      0.000938     0.001698    -0.001665
H      0.801091    -0.122833    -1.188810      0.000518     0.003984     0.001249
H      0.628720    -1.407108    -0.007390      0.000552    -0.000595    -0.003581
H      1.790021     1.019823     0.295392     -0.002478    -0.006939     0.002123
9
Iteration 4, Energy=-154.0865808196, |grad|=0.010300
C     -0.982798     0.048349     0.030605     -0.001767     0.000239    -0.003156
C      0.486711    -0.338237    -0.158818     -0.001315    -0.002859     0.001878
O      1.333391     0.345929     0.735988     -0.001073     0.000382     0.002563
H     -1.316178     0.780723    -0.707861     -0.000134    -0.002124    -0.001696
H     -1.640686    -0.821532    -0.034821     -0.000616    -0.000613     0.004132
H     -1.104519     0.483494     1.023517      0.001143     0.001372    -0.000592
H      0.799341    -0.142704    -1.188922      0.000855     0.004564     0.001160
H      0.623804    -1.406254     0.016356      0.000019    -0.000592    -0.003132
H      1.786589     1.037804     0.280827      0.002888    -0.000368    -0.001157
9
Iteration 5, Energy=-154.0870707717, |grad|=0.011239
C     -0.979624     0.049664     0.031835     -0.000850     0.000042    -0.003311
C      0.487549    -0.340869    -0.157429     -0.001745    -0.001709    -0.000924
O      1.340503     0.350461     0.727125     -0.001360    -0.001093     0.005489
H     -1.303717     0.802210    -0.689313     -0.000073    -0.002907    -0.000880
H     -1.640140    -0.815863    -0.064227     -0.000776    -0.001090     0.003896
H     -1.111195     0.460823     1.034422      0.000351     0.002330    -0.000087
H      0.796624    -0.167393    -1.192700      0.000467     0.003585     0.000576
H      0.620833    -1.405553     0.037716     -0.000103    -0.000164    -0.002810
H      1.774821     1.054093     0.269443      0.004088     0.001006    -0.001949
9
Iteration 6, Energy=-154.0875718449, |grad|=0.011859
C     -0.974383     0.051520     0.035130      0.001471    -0.000521    -0.000520
C      0.489164    -0.344477    -0.155550     -0.000431    -0.000199    -0.002666
O      1.344957     0.354642     0.717692     -0.003611    -0.002187     0.006305
H     -1.290836     0.823294    -0.669293     -0.000859    -0.003098    -0.000545
H     -1.635609    -0.808801    -0.095289      0.000114    -0.001212     0.002659
H     -1.117240     0.441325     1.044957     -0.000549     0.003949    -0.000214
H      0.792821    -0.193762    -1.196086     -0.000161     0.002185     0.000144
H      0.618521    -1.406240     0.056984     -0.000207    -0.000069    -0.003052
H      1.758259     1.070072     0.258324      0.004234     0.001152    -0.002110
9
Iteration 7, Energy=-154.0880625169, |grad|=0.014287
C     -0.971046     0.052441     0.036679      0.001828    -0.000806    -0.000121
C      0.490301    -0.347757    -0.154083     -0.000384     0.000891    -0.005345
O      1.351425     0.359423     0.708418     -0.003224    -0.002418     0.008544
H     -1.276065     0.843631    -0.650280     -0.000627    -0.003819    -0.000103
H     -1.635999    -0.800179    -0.124010     -0.000148    -0.001321     0.002404
H     -1.122869     0.417941     1.054755     -0.001126     0.004500     0.000245
H      0.789895    -0.218352    -1.198949     -0.000485     0.001202    -0.000465
H      0.616970    -1.405496     0.077602     -0.000285     0.000388    -0.002781
H      1.743042     1.085920     0.246737      0.004450     0.001382    -0.002378
9
Iteration 8, Energy=-154.0882732854, |grad|=0.034671
C     -0.963323     0.051893     0.044300     -0.001449    -0.002604     0.011144
C      0.496243    -0.357108    -0.153076      0.009282     0.005791    -0.006984
O      1.341658     0.368622     0.702450     -0.000105     0.015787    -0.000138
H     -1.237578     0.863255    -0.636128      0.001221    -0.003047    -0.004503
H     -1.646578    -0.776701    -0.146548      0.000525     0.002340     0.002380
H     -1.112225     0.395887     1.067337     -0.000265     0.002779    -0.001976
H      0.788799    -0.244074    -1.204155     -0.001134    -0.000650    -0.003680
H      0.629017    -1.411527     0.089762      0.000324     0.000661    -0.003612
H      1.689642     1.097325     0.232928     -0.008400    -0.021058     0.007370
9
Iteration 9, Energy=-154.0884836242, |grad|=0.013220
C     -0.967499     0.052621     0.039921      0.000283    -0.001366     0.003829
C      0.492456    -0.353496    -0.151371      0.002603     0.002275    -0.005405
O      1.351830     0.364567     0.701158     -0.002642     0.001815     0.006402
H     -1.256450     0.860172    -0.636522     -0.000356    -0.003508    -0.001741
H     -1.640524    -0.787538    -0.146296     -0.000066    -0.000129     0.001977
H     -1.121114     0.399006     1.063320     -0.000470     0.004006    -0.000583
H      0.788215    -0.236899    -1.199342     -0.000667     0.000815    -0.001015
H      0.621202    -1.408709     0.091267      0.000193     0.000134    -0.003141
H      1.717539     1.097849     0.234736      0.001124    -0.004040    -0.000322
9
Iteration 10, Energy=-154.0886174486, |grad|=0.010542
C     -0.967599     0.053498     0.038455      0.000866    -0.000905     0.001788
C      0.491496    -0.353963    -0.149706      0.000750     0.000973    -0.003630
O      1.355250     0.365097     0.697275     -0.002687     0.000700     0.005136
H     -1.257935     0.865664    -0.631863     -0.001003    -0.003053    -0.001232
H     -1.637879    -0.788177    -0.152550      0.000183    -0.000886     0.002158
H     -1.123482     0.393121     1.064028     -0.000331     0.004042    -0.000482
H      0.788602    -0.239764    -1.197228     -0.000227     0.001676    -0.000220
H      0.618168    -1.408611     0.097010      0.000083    -0.000184    -0.003037
H      1.719034     1.100707     0.231449      0.002367    -0.002363    -0.000480
9
Iteration 11, Energy=-154.0887623753, |grad|=0.010155
C     -0.967072     0.053585     0.038143      0.000736    -0.001044     0.001240
C      0.491338    -0.355648    -0.147557      0.000381     0.000784    -0.001975
O      1.357031     0.366204     0.694069     -0.003400    -0.000902     0.004878
H     -1.253435     0.871476    -0.627457     -0.001130    -0.002665    -0.001571
H     -1.638782    -0.785378    -0.159802      0.000081    -0.000925     0.002295
H     -1.123652     0.385681     1.065900      0.000143     0.003668    -0.000628
H      0.788485    -0.243595    -1.195122     -0.000046     0.002373     0.000288
H      0.617629    -1.409699     0.102430      0.000076    -0.000449    -0.003105
H      1.714112     1.104947     0.226266      0.003159    -0.000840    -0.001421
9
Iteration 12, Energy=-154.0889023150, |grad|=0.009333
C     -0.966258     0.053877     0.038029      0.000289    -0.000906     0.001186
C      0.491502    -0.357952    -0.145936      0.000464     0.000077    -0.000554
O      1.357689     0.367972     0.690863     -0.003382    -0.000023     0.003510
H     -1.247923     0.877604    -0.623087     -0.001174    -0.002139    -0.002026
H     -1.639823    -0.781945    -0.166183      0.000164    -0.000874     0.002562
H     -1.122981     0.378531     1.067863      0.000531     0.003209    -0.000845
H      0.788850    -0.248265    -1.193772      0.000210     0.002942     0.000457
H      0.617583    -1.411453     0.107202      0.000034    -0.000846    -0.003309
H      1.707015     1.109203     0.221890      0.002863    -0.001439    -0.000981
9
Iteration 13, Energy=-154.0890373623, |grad|=0.009334
C     -0.965254     0.054089     0.038155      0.000092    -0.000684     0.000827
C      0.491791    -0.359898    -0.144596      0.000593    -0.000298     0.000149
O      1.358719     0.369279     0.688106     -0.003512     0.000037     0.003277
H     -1.242079     0.883093    -0.618398     -0.001025    -0.002095    -0.002108
H     -1.640709    -0.778481    -0.172890      0.000121    -0.000849     0.002711
H     -1.123240     0.371920     1.069925      0.000679     0.002998    -0.000788
H      0.788531    -0.253217    -1.193000      0.000264     0.003255     0.000489
H      0.617909    -1.412456     0.112022      0.000064    -0.000816    -0.003421
H      1.699987     1.113242     0.217545      0.002724    -0.001549    -0.001135
9
Iteration 14, Energy=-154.0891704681, |grad|=0.009320
C     -0.964270     0.054331     0.038349     -0.000026    -0.000564     0.000692
C      0.492087    -0.361682    -0.143676      0.000557    -0.000777     0.000383
O      1.360044     0.370650     0.685254     -0.003385     0.000493     0.003134
H     -1.237028     0.888382    -0.613595     -0.000970    -0.001995    -0.002161
H     -1.641211    -0.775264    -0.179484      0.000112    -0.000837     0.002804
H     -1.123876     0.365672     1.071844      0.000716     0.002877    -0.000771
H      0.788050    -0.258744    -1.192760      0.000291     0.003392     0.000456
H      0.617949    -1.413320     0.116792      0.000036    -0.000917    -0.003508
H      1.693909     1.117548     0.214145      0.002670    -0.001672    -0.001029
9
Iteration 15, Energy=-154.0893025247, |grad|=0.009341
C     -0.963291     0.054632     0.038581     -0.000049    -0.000447     0.000554
C      0.492369    -0.363144    -0.142789      0.000601    -0.000844     0.000576
O      1.361449     0.371646     0.682397     -0.003503     0.000403     0.003062
H     -1.232286     0.893550    -0.608677     -0.000913    -0.001954    -0.002151
H     -1.641383    -0.772198    -0.186213      0.000096    -0.000877     0.002838
H     -1.124746     0.359571     1.073733      0.000730     0.002815    -0.000720
H      0.787581    -0.264179    -1.192520      0.000322     0.003479     0.000465
H      0.618038    -1.413729     0.121742      0.000094    -0.000873    -0.003495
H      1.687924     1.121423     0.210618      0.002621    -0.001702    -0.001129
9
Iteration 16, Energy=-154.0894336839, |grad|=0.009329
C     -0.962299     0.054871     0.038823     -0.000069    -0.000434     0.000453
C      0.492674    -0.364592    -0.142025      0.000542    -0.001070     0.000604
O      1.363078     0.372799     0.679530     -0.003382     0.000638     0.003105
H     -1.227765     0.898486    -0.603788     -0.000884    -0.001927    -0.002134
H     -1.641489    -0.769148    -0.192885      0.000085    -0.000867     0.002845
H     -1.125638     0.353581     1.075518      0.000738     0.002769    -0.000690
H      0.786870    -0.269841    -1.192486      0.000288     0.003500     0.000429
H      0.617850    -1.414179     0.126591      0.000042    -0.000918    -0.003516
H      1.682373     1.125595     0.207591      0.002641    -0.001691    -0.001096
9
Iteration 17, Energy=-154.0895639215, |grad|=0.009298
C     -0.961329     0.055192     0.039111     -0.000104    -0.000364     0.000457
C      0.492993    -0.365970    -0.141283      0.000611    -0.001053     0.000679
O      1.364549     0.373726     0.676602     -0.003473     0.000607     0.003009
H     -1.223261     0.903503    -0.598841     -0.000859    -0.001851    -0.002143
H     -1.641546    -0.766031    -0.199497      0.000078    -0.000891     0.002851
H     -1.126594     0.347641     1.077301      0.000726     0.002718    -0.000665
H      0.786425    -0.275438    -1.192393      0.000333     0.003517     0.000415
H      0.617957    -1.414483     0.131489      0.000111    -0.000906    -0.003477
H      1.676458     1.129432     0.204382      0.002578    -0.001776    -0.001124
9
Iteration 18, Energy=-154.0896931015, |grad|=0.009259
C     -0.960330     0.055440     0.039373     -0.000066    -0.000382     0.000364
C      0.493287    -0.367246    -0.140574      0.000538    -0.001121     0.000654
O      1.366318     0.374716     0.673686     -0.003400     0.000646     0.003119
H     -1.218972     0.908231    -0.593912     -0.000837    -0.001855    -0.002096
H     -1.641418    -0.763040    -0.206186      0.000060    -0.000906     0.002805
H     -1.127568     0.341794     1.078983      0.000736     0.002702    -0.000623
H      0.785598    -0.281107    -1.192397      0.000275     0.003493     0.000398
H      0.617677    -1.414700     0.136372      0.000059    -0.000911    -0.003459
H      1.671062     1.133484     0.201524      0.002634    -0.001666    -0.001162
9
Iteration 19, Energy=-154.0898211419, |grad|=0.009203
C     -0.959335     0.055759     0.039679     -0.000133    -0.000336     0.000411
C      0.493647    -0.368654    -0.139891      0.000622    -0.001138     0.000697
O      1.367808     0.375659     0.670709     -0.003432     0.000745     0.003005
H     -1.214455     0.913121    -0.588961     -0.000818    -0.001769    -0.002116
H     -1.641463    -0.759777    -0.212664      0.000066    -0.000891     0.002812
H     -1.128500     0.335923     1.080662      0.000719     0.002636    -0.000615
H      0.785149    -0.286777    -1.192355      0.000318     0.003487     0.000360
H      0.617800    -1.415023     0.141182      0.000109    -0.000924    -0.003426
H      1.665004     1.137341     0.198508      0.002549    -0.001809    -0.001130
9
Iteration 20, Energy=-154.0899478891, |grad|=0.009133
C     -0.958356     0.056028     0.039959     -0.000062    -0.000360     0.000348
C      0.493930    -0.369825    -0.139228      0.000538    -0.001093     0.000650
O      1.369675     0.376502     0.667710     -0.003414     0.000607     0.003129
H     -1.210362     0.917718    -0.583997     -0.000810    -0.001766    -0.002060
H     -1.641189    -0.756808    -0.219321      0.000037    -0.000937     0.002730
H     -1.129571     0.330201     1.082249      0.000724     0.002638    -0.000565
H      0.784301    -0.292443    -1.192361      0.000270     0.003438     0.000365
H      0.617536    -1.415085     0.146075      0.000084    -0.000913    -0.003374
H      1.659690     1.141284     0.195783      0.002633    -0.001614    -0.001223
9
Iteration 21, Energy=-154.0900732450, |grad|=0.009062
C     -0.957311     0.056333     0.040257     -0.000134    -0.000326     0.000370
C      0.494315    -0.371260    -0.138564      0.000615    -0.001155     0.000692
O      1.371187     0.377472     0.664702     -0.003385     0.000818     0.003023
H     -1.205745     0.922463    -0.579055     -0.000776    -0.001700    -0.002073
H     -1.641193    -0.753422    -0.225692      0.000053    -0.000896     0.002740
H     -1.130417     0.324372     1.083821      0.000720     0.002554    -0.000562
H      0.783765    -0.298125    -1.192333      0.000286     0.003425     0.000315
H      0.617607    -1.415415     0.150818      0.000094    -0.000925    -0.003352
H      1.653447     1.145155     0.192915      0.002527    -0.001795    -0.001154
9
Iteration 22, Energy=-154.0901970723, |grad|=0.008964
C     -0.956358     0.056629     0.040563     -0.000077    -0.000347     0.000363
C      0.494614    -0.372403    -0.137955      0.000548    -0.001057     0.000630
O      1.373103     0.378207     0.661604     -0.003405     0.000585     0.003115
H     -1.201798     0.926978    -0.574054     -0.000791    -0.001667    -0.002022
H     -1.640870    -0.750385    -0.232249      0.000022    -0.000944     0.002645
H     -1.131602     0.318762     1.085315      0.000702     0.002562    -0.000516
H      0.782998    -0.303813    -1.192343      0.000276     0.003358     0.000323
H      0.617464    -1.415412     0.155676      0.000111    -0.000920    -0.003276
H      1.648103     1.149009     0.190311      0.002614    -0.001569    -0.001262
9
Iteration 23, Energy=-154.0903192603, |grad|=0.008876
C     -0.955264     0.056919     0.040843     -0.000109    -0.000322     0.000336
C      0.494996    -0.373815    -0.137301      0.000591    -0.001118     0.000672
O      1.374671     0.379163     0.658564     -0.003337     0.000821     0.003046
H     -1.197111     0.931562    -0.569132     -0.000736    -0.001626    -0.002020
H     -1.640772    -0.746965    -0.238557      0.000031    -0.000915     0.002638
H     -1.132360     0.312994     1.086783      0.000722     0.002473    -0.000501
H      0.782300    -0.309471    -1.192316      0.000247     0.003339     0.000279
H      0.617435    -1.415687     0.160387      0.000082    -0.000917    -0.003255
H      1.641759     1.152872     0.187598      0.002510    -0.001735    -0.001195
9
Iteration 24, Energy=-154.0904396846, |grad|=0.008758
C     -0.954320     0.057236     0.041170     -0.000103    -0.000337     0.000376
C      0.495335    -0.374995    -0.136741      0.000559    -0.001036     0.000608
O      1.376591     0.379852     0.655378     -0.003364     0.000598     0.003086
H     -1.193209     0.936005    -0.564098     -0.000767    -0.001573    -0.001972
H     -1.640465    -0.743773    -0.244964      0.000017    -0.000927     0.002555
H     -1.133617     0.307468     1.088179      0.000679     0.002470    -0.000474
H      0.781651    -0.315195    -1.192330      0.000277     0.003263     0.000277
H      0.617438    -1.415691     0.165173      0.000128    -0.000922    -0.003172
H      1.636250     1.156666     0.185103      0.002574    -0.001537    -0.001283
9
Iteration 25, Energy=-154.0905582269, |grad|=0.008646
C     -0.953203     0.057522     0.041440     -0.000081    -0.000317     0.000321
C      0.495706    -0.376351    -0.136108      0.000566    -0.001050     0.000639
O      1.378243     0.380747     0.652280     -0.003286     0.000779     0.003051
H     -1.188546     0.940444    -0.559194     -0.000702    -0.001536    -0.001963
H     -1.640248    -0.740372    -0.251225      0.000005    -0.000937     0.002518
H     -1.134347     0.301795     1.089553      0.000715     0.002388    -0.000439
H      0.780807    -0.320829    -1.192307      0.000216     0.003234     0.000246
H      0.617343    -1.415874     0.169872      0.000081    -0.000910    -0.003136
H      1.629898     1.160491     0.182560      0.002486    -0.001650    -0.001238
9
Iteration 26, Energy=-154.0906747690, |grad|=0.008517
C     -0.952238     0.057845     0.041773     -0.000121    -0.000326     0.000373
C      0.496085    -0.377588    -0.135582      0.000562    -0.001016     0.000585
O      1.380147     0.381430     0.649026     -0.003295     0.000621     0.003053
H     -1.184588     0.944793    -0.554146     -0.000732    -0.001487    -0.001909
H     -1.639958    -0.737008    -0.257476      0.000014    -0.000902     0.002456
H     -1.135600     0.296327     1.090846      0.000661     0.002366    -0.000434
H      0.780220    -0.326571    -1.192319      0.000265     0.003155     0.000232
H      0.617436    -1.415903     0.174576      0.000129    -0.000911    -0.003061
H      1.624150     1.164247     0.180171      0.002518    -0.001501    -0.001295
9
Iteration 27, Energy=-154.0907891895, |grad|=0.008377
C     -0.951123     0.058140     0.042042     -0.000063    -0.000310     0.000319
C      0.496451    -0.378891    -0.134987      0.000544    -0.000977     0.000600
O      1.381883     0.382246     0.645850     -0.003222     0.000725     0.003033
H     -1.180026     0.949114    -0.549249     -0.000673    -0.001436    -0.001898
H     -1.639646    -0.733618    -0.263673     -0.000017    -0.000946     0.002390
H     -1.136362     0.290770     1.092129      0.000696     0.002294    -0.000381
H      0.779306    -0.332202    -1.192307      0.000197     0.003112     0.000211
H      0.617348    -1.416001     0.179259      0.000091    -0.000903    -0.003003
H      1.617824     1.168015     0.177806      0.002447    -0.001559    -0.001271
9
Iteration 28, Energy=-154.0909013728, |grad|=0.008237
C     -0.950123     0.058461     0.042373     -0.000126    -0.000316     0.000362
C      0.496859    -0.380170    -0.134482      0.000555    -0.000982     0.000560
O      1.383780     0.382933     0.642538     -0.003206     0.000631     0.003012
H     -1.175969     0.953351    -0.544207     -0.000690    -0.001401    -0.001837
H     -1.639347    -0.730119    -0.269784      0.000007    -0.000880     0.002343
H     -1.137569     0.285356     1.093320      0.000644     0.002253    -0.000391
H      0.778711    -0.337939    -1.192311      0.000244     0.003035     0.000192
H      0.617468    -1.416036     0.183891      0.000123    -0.000890    -0.002936
H      1.611843     1.171736     0.175533      0.002450    -0.001450    -0.001305
9
Iteration 29, Energy=-154.0910111992, |grad|=0.008072
C     -0.949018     0.058769     0.042644     -0.000056    -0.000301     0.000319
C      0.497232    -0.381442    -0.133933      0.000524    -0.000909     0.000558
O      1.385585     0.383680     0.639275     -0.003137     0.000676     0.002994
H     -1.171524     0.957565    -0.539310     -0.000644    -0.001334    -0.001824
H     -1.638973    -0.726702    -0.275894     -0.000033    -0.000939     0.002258
H     -1.138380     0.279917     1.094513      0.000671     0.002189    -0.000328
H      0.777778    -0.343584    -1.192312      0.000183     0.002976     0.000175
H      0.617437    -1.416075     0.188543      0.000103    -0.000892    -0.002859
H      1.605518     1.175445     0.173344      0.002390    -0.001467    -0.001292
9
Iteration 30, Energy=-154.0911185561, |grad|=0.007917
C     -0.947983     0.059084     0.042970     -0.000123    -0.000305     0.000351
C      0.497659    -0.382739    -0.133448      0.000540    -0.000933     0.000530
O      1.387489     0.384362     0.635900     -0.003100     0.000622     0.002956
H     -1.167380     0.961682    -0.534284     -0.000644    -0.001312    -0.001757
H     -1.638640    -0.723112    -0.281880     -0.000002    -0.000860     0.002218
H     -1.139540     0.274567     1.095607      0.000624     0.002135    -0.000348
H      0.777145    -0.349306    -1.192310      0.000221     0.002900     0.000156
H      0.617554    -1.416092     0.193115      0.000114    -0.000862    -0.002798
H      1.599351     1.179125     0.171200      0.002370    -0.001384    -0.001310
9
Iteration 31, Energy=-154.0912233276, |grad|=0.007731
C     -0.946884     0.059407     0.043239     -0.000054    -0.000288     0.000314
C      0.498046    -0.384000    -0.132944      0.000504    -0.000845     0.000517
O      1.389345     0.385055     0.632556     -0.003030     0.000630     0.002936
H     -1.163035     0.965797    -0.529392     -0.000613    -0.001232    -0.001741
H     -1.638226    -0.719640    -0.287889     -0.000044    -0.000918     0.002122
H     -1.140385     0.269241     1.096707      0.000643     0.002074    -0.000279
H      0.776204    -0.354969    -1.192322      0.000167     0.002829     0.000139
H      0.617599    -1.416091     0.197727      0.000114    -0.000876    -0.002706
H      1.592990     1.182774     0.169186      0.002313    -0.001374    -0.001301
9
Iteration 32, Energy=-154.0913254036, |grad|=0.007558
C     -0.945823     0.059715     0.043567     -0.000116    -0.000296     0.000343
C      0.498486    -0.385298    -0.132484      0.000519    -0.000875     0.000495
O      1.391269     0.385728     0.629106     -0.002976     0.000598     0.002882
H     -1.158828     0.969792    -0.524384     -0.000596    -0.001219    -0.001669
H     -1.637849    -0.715989    -0.293757     -0.000012    -0.000837     0.002084
H     -1.141521     0.263962     1.097711      0.000598     0.002011    -0.000304
H      0.775535    -0.360670    -1.192315      0.000202     0.002752     0.000123
H      0.617699    -1.416072     0.202245      0.000104    -0.000829    -0.002648
H      1.586685     1.186405     0.167181      0.002277    -0.001305    -0.001306
9
Iteration 33, Energy=-154.0914246720, |grad|=0.007354
C     -0.944723     0.060056     0.043824     -0.000053    -0.000270     0.000302
C      0.498892    -0.386562    -0.132020      0.000483    -0.000784     0.000475
O      1.393163     0.386378     0.625691     -0.002901     0.000585     0.002863
H     -1.154577     0.973811    -0.519505     -0.000583    -0.001129    -0.001649
H     -1.637404    -0.712447    -0.299658     -0.000052    -0.000887     0.001980
H     -1.142368     0.258746     1.098713      0.000616     0.001949    -0.000236
H      0.774572    -0.366357    -1.192340      0.000147     0.002669     0.000105
H      0.617840    -1.416045     0.206815      0.000125    -0.000854    -0.002543
H      1.580260     1.189993     0.165349      0.002218    -0.001279    -0.001298
9
Iteration 34, Energy=-154.0915210246, |grad|=0.007158
C     -0.943645     0.060351     0.044163     -0.000107    -0.000290     0.000338
C      0.499339    -0.387846    -0.131590      0.000492    -0.000807     0.000456
O      1.395115     0.387043     0.622147     -0.002835     0.000564     0.002782
H     -1.150306     0.977677    -0.514514     -0.000543    -0.001124    -0.001575
H     -1.636979    -0.708758    -0.305409     -0.000022    -0.000811     0.001942
H     -1.143515     0.253541     1.099640      0.000565     0.001882    -0.000259
H      0.773891    -0.372030    -1.192325      0.000190     0.002592     0.000093
H      0.617898    -1.415977     0.211277      0.000088    -0.000789    -0.002486
H      1.573856     1.193570     0.163480      0.002171    -0.001217    -0.001291
9
Iteration 35, Energy=-154.0916143520, |grad|=0.006942
C     -0.942540     0.060719     0.044391     -0.000055    -0.000244     0.000280
C      0.499770    -0.389125    -0.131161      0.000463    -0.000727     0.000436
O      1.397037     0.387653     0.618678     -0.002749     0.000535     0.002780
H     -1.146174     0.981612    -0.509659     -0.000557    -0.001025    -0.001547
H     -1.636509    -0.705129    -0.311201     -0.000056    -0.000845     0.001834
H     -1.144323     0.248439     1.100530      0.000590     0.001815    -0.000202
H      0.772873    -0.377754    -1.192366      0.000117     0.002496     0.000073
H      0.618171    -1.415933     0.215810      0.000142    -0.000827    -0.002369
H      1.567348     1.197092     0.161847      0.002105    -0.001179    -0.001284
9
Iteration 36, Energy=-154.0917045460, |grad|=0.006717
C     -0.941452     0.060986     0.044765     -0.000090    -0.000291     0.000339
C      0.500215    -0.390376    -0.130767      0.000456    -0.000726     0.000410
O      1.399022     0.388319     0.615013     -0.002676     0.000525     0.002649
H     -1.141801     0.985338    -0.504682     -0.000476    -0.001030    -0.001475
H     -1.636033    -0.701438    -0.316835     -0.000035    -0.000786     0.001792
H     -1.145534     0.243303     1.101409      0.000521     0.001749    -0.000206
H      0.772221    -0.383374    -1.192338      0.000190     0.002424     0.000067
H      0.618133    -1.415800     0.220210      0.000061    -0.000742    -0.002316
H      1.560884     1.200615     0.160096      0.002050    -0.001124    -0.001262
9
Iteration 37, Energy=-154.0917914982, |grad|=0.006501
C     -0.940335     0.061400     0.044933     -0.000068    -0.000207     0.000248
C      0.500682    -0.391694    -0.130367      0.000447    -0.000686     0.000401
O      1.400961     0.388886     0.611522     -0.002576     0.000481     0.002689
H     -1.137854     0.989204    -0.499858     -0.000543    -0.000922    -0.001433
H     -1.635546    -0.697685    -0.322515     -0.000050    -0.000781     0.001687
H     -1.146243     0.238322     1.102149      0.000569     0.001671    -0.000188
H      0.771101    -0.389166    -1.192399      0.000075     0.002309     0.000042