14
轮次1  Outer Iteration 0, Energy=-156.9719208364, |grad|=1.140868
C     -1.611191     0.525590     0.082095      0.217835     0.413565     0.167081
C     -0.508036    -0.678075    -0.819840     -0.019575    -0.463419    -0.144614
C      0.550269    -0.519320     0.159815     -0.250108     0.269951     0.306443
C      1.519909     0.426031     0.553073     -0.056612    -0.340555     0.154803
H     -0.949130     0.758950     0.711728     -0.146256    -0.133872    -0.204629
H     -2.537772    -0.313555     0.457839     -0.116152    -0.109767     0.009495
H     -2.095003     0.958355    -0.680449      0.047890    -0.126864     0.081763
H     -0.511953    -0.301315    -1.774464     -0.047664    -0.045876     0.088347
H     -1.004698    -1.448173    -0.836198      0.172064     0.339702    -0.021026
H      0.420612    -1.016991     0.946552      0.099778     0.182811    -0.249885
H      1.435987    -1.557012    -0.498001      0.063263    -0.080437    -0.070125
H      2.664656     0.555513     0.784499      0.096081     0.080159     0.002256
H      0.919747     1.058037     1.262048     -0.051333    -0.012722     0.008735
H      1.545860     1.082728    -0.571581     -0.009211     0.027324    -0.128643
14
轮次1  Outer Iteration 1, Energy=-157.0516182384, |grad|=0.866583
C     -1.631987     0.507708     0.061014      0.115897     0.334271     0.105759
C     -0.505048    -0.673143    -0.814130      0.089069    -0.319030    -0.119150
C      0.564132    -0.532101     0.155169     -0.254403     0.295779     0.198532
C      1.543936     0.437536     0.549887     -0.014259    -0.303346     0.159160
H     -0.978172     0.805189     0.766640     -0.034784    -0.090686    -0.093704
H     -2.535822    -0.297541     0.432614     -0.105710    -0.097402     0.006977
H     -2.138806     0.967246    -0.715252      0.016670    -0.095470     0.034907
H     -0.509038    -0.281591    -1.780657     -0.046309    -0.029780     0.061268
H     -1.025698    -1.504196    -0.832281      0.070453     0.179584    -0.016262
H      0.434651    -1.060205     0.976173      0.076697     0.116314    -0.150060
H      1.438057    -1.551305    -0.507403      0.065209    -0.083580    -0.071731
H      2.670482     0.555140     0.763333      0.076455     0.079180    -0.003010
H      0.959294     1.065882     1.266464     -0.045398    -0.011755     0.006819
H      1.553276     1.092142    -0.544453     -0.009587     0.025921    -0.119505
14
轮次1  Outer Iteration 2, Energy=-157.1078732597, |grad|=0.745877
C     -1.655214     0.480351     0.035825      0.076102     0.279237     0.096965
C     -0.511115    -0.665792    -0.801224      0.125526    -0.266714    -0.106150
C      0.584682    -0.550419     0.154454     -0.254315     0.294060     0.138351
C      1.575854     0.450346     0.546034      0.031764    -0.259028     0.157760
H     -1.054827     0.842871     0.790087     -0.012095    -0.073204    -0.058929
H     -2.524131    -0.277080     0.402229     -0.084095    -0.074294     0.001322
H     -2.177718     0.965038    -0.743694     -0.000541    -0.074486     0.012486
H     -0.515908    -0.259846    -1.777060     -0.046138    -0.015698     0.041123
H     -1.039072    -1.531323    -0.818858      0.030925     0.116465    -0.011271
H      0.457177    -1.103762     1.001469      0.060996     0.072197    -0.088581
H      1.435345    -1.544495    -0.515327      0.067712    -0.087772    -0.074290
H      2.683188     0.546194     0.733997      0.051230     0.076787    -0.009962
H      1.015043     1.077643     1.272532     -0.037456    -0.009346     0.003440
H      1.565952     1.101038    -0.503348     -0.009615     0.021797    -0.102265
14
轮次1  Outer Iteration 3, Energy=-157.1513531207, |grad|=0.650378
C     -1.664128     0.450640     0.011629      0.032455     0.216550     0.076072
C     -0.523404    -0.655263    -0.787531      0.144420    -0.223257    -0.099027
C      0.600889    -0.568896     0.153843     -0.249841     0.284351     0.108062
C      1.593792     0.464592     0.540778      0.062019    -0.218822     0.145593
H     -1.102361     0.867314     0.803910      0.008250    -0.052382    -0.023037
H     -2.499594    -0.263538     0.373600     -0.055063    -0.047476    -0.007864
H     -2.192853     0.960506    -0.767043     -0.009889    -0.059765     0.000548
H     -0.526520    -0.238046    -1.769526     -0.046734    -0.004325     0.028820
H     -1.056279    -1.551380    -0.804510      0.002951     0.070371    -0.006004
H      0.474241    -1.139463     1.019465      0.051133     0.044505    -0.052547
H      1.424305    -1.535344    -0.517936      0.068875    -0.091498    -0.076386
H      2.689186     0.537073     0.706491      0.032245     0.073448    -0.015562
H      1.053590     1.092656     1.275381     -0.031928    -0.005597    -0.000099
H      1.568392     1.109913    -0.461436     -0.008891     0.013896    -0.078570
14
轮次1  Outer Iteration 4, Energy=-157.1855977422, |grad|=0.575113
C     -1.668487     0.422455    -0.011215      0.009884     0.164293     0.064894
C     -0.536990    -0.642177    -0.771608      0.145782    -0.190442    -0.093314
C      0.619831    -0.589976     0.152341     -0.237862     0.267331     0.089312
C      1.608569     0.477672     0.534859      0.079655    -0.179662     0.126808
H     -1.155176     0.886883     0.804056      0.010871    -0.039857    -0.007674
H     -2.485493    -0.257829     0.352102     -0.030374    -0.025176    -0.014323
H     -2.198291     0.957189    -0.786704     -0.015137    -0.046498    -0.006095
H     -0.535248    -0.215784    -1.758420     -0.047295     0.005413     0.020315
H     -1.070307    -1.561529    -0.787978     -0.013466     0.042199    -0.000610
H      0.492638    -1.173851     1.033450      0.043490     0.023800    -0.027405
H      1.411583    -1.524953    -0.517088      0.068924    -0.094208    -0.077078
H      2.698203     0.524357     0.680526      0.020588     0.069036    -0.019274
H      1.088405     1.108098     1.277409     -0.027493    -0.000629    -0.003373
H      1.570020     1.120208    -0.424613     -0.007567     0.004400    -0.052182
14
轮次1  Outer Iteration 5, Energy=-157.2135342711, |grad|=0.505256
C     -1.664666     0.397457    -0.030300      0.001370     0.120753     0.047355
C     -0.550811    -0.629043    -0.757002      0.134067    -0.160572    -0.086528
C      0.638100    -0.613624     0.148201     -0.220000     0.243031     0.077419
C      1.613836     0.490002     0.528616      0.086401    -0.143870     0.107924
H     -1.190697     0.900812     0.799416      0.011248    -0.028662     0.003340
H     -2.476212    -0.257954     0.339862     -0.015633    -0.012523    -0.016414
H     -2.190180     0.957351    -0.799423     -0.016669    -0.035822    -0.008671
H     -0.539042    -0.197135    -1.748150     -0.047082     0.013161     0.014480
H     -1.081346    -1.566046    -0.773359     -0.022679     0.024720     0.004579
H      0.507049    -1.204233     1.041399      0.037755     0.010121    -0.012209
H      1.397048    -1.514056    -0.510981      0.066830    -0.094623    -0.075083
H      2.700825     0.511180     0.660017      0.014460     0.063407    -0.021487
H      1.109275     1.123639     1.276578     -0.024126     0.004839    -0.006204
H      1.566078     1.132414    -0.397759     -0.005944    -0.003961    -0.028502
14
轮次1  Outer Iteration 6, Energy=-157.2368669850, |grad|=0.435417
C     -1.657155     0.377835    -0.043478      0.003860     0.086536     0.030627
C     -0.561968    -0.617750    -0.744551      0.114256    -0.131568    -0.078260
C      0.657245    -0.640262     0.140673     -0.195305     0.211727     0.065538
C      1.610837     0.500374     0.521937      0.085173    -0.114273     0.094345
H     -1.215053     0.910927     0.792327      0.008202    -0.021027     0.007805
H     -2.470931    -0.256359     0.336876     -0.008477    -0.005823    -0.015177
H     -2.175164     0.962631    -0.803975     -0.016341    -0.026960    -0.008701
H     -0.534745    -0.184102    -1.739862     -0.045234     0.018617     0.010073
H     -1.086866    -1.568374    -0.761972     -0.026715     0.013776     0.009157
H      0.518957    -1.231991     1.043825      0.032999     0.001275    -0.003191
H      1.384107    -1.503570    -0.500652      0.061666    -0.091178    -0.068959
H      2.696775     0.498439     0.645838      0.012100     0.056704    -0.022532
H      1.116199     1.136925     1.272784     -0.021473     0.010276    -0.008383
H      1.557017     1.146041    -0.382655     -0.004710    -0.008084    -0.012343
14
轮次1  Outer Iteration 7, Energy=-157.2563146056, |grad|=0.361348
C     -1.647388     0.364498    -0.049660      0.007955     0.059429     0.016524
C     -0.569518    -0.609399    -0.735142      0.090951    -0.104469    -0.069146
C      0.676570    -0.669258     0.129526     -0.163585     0.173254     0.049363
C      1.598832     0.509006     0.513927      0.078677    -0.090115     0.086322
H     -1.225165     0.918880     0.787044      0.004965    -0.015069     0.009595
H     -2.465097    -0.251440     0.341762     -0.004785    -0.001991    -0.012753
H     -2.155081     0.973825    -0.800223     -0.014802    -0.019679    -0.007389
H     -0.521368    -0.178061    -1.734604     -0.041263     0.021602     0.006353
H     -1.086622    -1.570329    -0.754944     -0.026662     0.007135     0.012849
H      0.527218    -1.256721     1.041290      0.028646    -0.003927     0.001661
H      1.373641    -1.494180    -0.486789      0.051996    -0.082031    -0.057297
H      2.683765     0.487543     0.638004      0.011215     0.049240    -0.022962
H      1.107344     1.147259     1.264469     -0.019241     0.015067    -0.010287
H      1.542125     1.159140    -0.377544     -0.004067    -0.008445    -0.002833
14
轮次1  Outer Iteration 8, Energy=-157.2719041773, |grad|=0.281653
C     -1.636355     0.356886    -0.049292      0.009975     0.039335     0.006971
C     -0.573061    -0.603308    -0.727940      0.068336    -0.079534    -0.059676
C      0.695783    -0.698934     0.115660     -0.124357     0.128032     0.026625
C      1.578747     0.515976     0.503630      0.068080    -0.070022     0.081783
H     -1.223036     0.925590     0.784541      0.002126    -0.010552     0.009388
H     -2.458066    -0.243281     0.353475     -0.003091     0.000152    -0.009732
H     -2.131133     0.990187    -0.789648     -0.012463    -0.013531    -0.005570
H     -0.498820    -0.178083    -1.731283     -0.035145     0.022200     0.003119
H     -1.080975    -1.572375    -0.751923     -0.023838     0.002826     0.015617
H      0.531683    -1.277859     1.035026      0.024161    -0.006539     0.003914
H      1.366491    -1.485967    -0.471151      0.036633    -0.065638    -0.039397
H      2.662187     0.478262     0.635571      0.010880     0.041224    -0.022981
H      1.083783     1.153434     1.251037     -0.017273     0.018581    -0.012284
H      1.522028     1.170234    -0.380586     -0.004025    -0.006533     0.002222
14
轮次1  Outer Iteration 9, Energy=-157.2833312908, |grad|=0.202093
C     -1.623531     0.353150    -0.043176      0.008798     0.023689     0.001631
C     -0.573429    -0.597779    -0.721354      0.047658    -0.056078    -0.048979
C      0.712885    -0.725959     0.101158     -0.080031     0.080142    -0.000748
C      1.551254     0.521622     0.489825      0.054530    -0.053333     0.078334
H     -1.209291     0.931109     0.785309      0.000535    -0.006669     0.008373
H     -2.447512    -0.234179     0.370464     -0.001802     0.001254    -0.006850
H     -2.102756     1.009978    -0.773703     -0.009306    -0.008177    -0.003952
H     -0.467398    -0.182646    -1.727982     -0.027079     0.020472     0.000494
H     -1.070685    -1.573741    -0.752539     -0.019213    -0.000090     0.017410
H      0.530515    -1.293357     1.026727      0.019041    -0.007221     0.004328
H      1.363182    -1.478842    -0.456142      0.016733    -0.042965    -0.017155
H      2.631793     0.469090     0.637800      0.010234     0.032771    -0.022590
H      1.046716     1.153842     1.232193     -0.015554     0.019818    -0.014594
H      1.497513     1.178474    -0.391464     -0.004544    -0.003615     0.004297
14
轮次1  Outer Iteration 10, Energy=-157.2907840282, |grad|=0.142269
C     -1.613344     0.351642    -0.033166      0.005261     0.012308    -0.000183
C     -0.571466    -0.591035    -0.713146      0.031027    -0.035094    -0.036816
C      0.725578    -0.744604     0.090359     -0.041590     0.042944    -0.022053
C      1.522213     0.526131     0.471611      0.040194    -0.040800     0.072534
H     -1.193272     0.936366     0.788082     -0.000104    -0.003548     0.006457
H     -2.438078    -0.226620     0.390287     -0.001277     0.001465    -0.003998
H     -2.075937     1.029429    -0.755194     -0.005550    -0.003695    -0.002401
H     -0.428529    -0.189859    -1.721723     -0.017725     0.016254    -0.001086
H     -1.055188    -1.573472    -0.756970     -0.013559    -0.001803     0.017730
H      0.523601    -1.300211     1.019075      0.013095    -0.006440     0.002788
H      1.366436    -1.473091    -0.446475      0.000944    -0.022849     0.000909
H      2.597570     0.456110     0.643956      0.009054     0.024217    -0.021347
H      1.005003     1.146644     1.210541     -0.014252     0.017703    -0.016514
H      1.474670     1.183333    -0.410122     -0.005519    -0.000662     0.003979
14
轮次1  Outer Iteration 11, Energy=-157.2954617746, |grad|=0.105660
C     -1.611153     0.350578    -0.023972      0.002067     0.005545    -0.000354
C     -0.570920    -0.582441    -0.702797      0.018001    -0.019174    -0.025079
C      0.731843    -0.751040     0.087711     -0.020517     0.026942    -0.026337
C      1.503231     0.530638     0.451738      0.029566    -0.032139     0.061641
H     -1.187263     0.941816     0.790277     -0.000126    -0.001635     0.004174
H     -2.433001    -0.227449     0.404944     -0.000883     0.000565    -0.002279
H     -2.062080     1.040374    -0.741519     -0.002140    -0.000809    -0.001222
H     -0.394424    -0.195859    -1.711437     -0.010017     0.010637    -0.001084
H     -1.039826    -1.570008    -0.765253     -0.008428    -0.001902     0.016110
H      0.514766    -1.297239     1.016799      0.007447    -0.005111     0.000023
H      1.372823    -1.467393    -0.444959     -0.002694    -0.014368     0.006792
H      2.570892     0.436749     0.653009      0.007309     0.016819    -0.018644
H      0.979194     1.136174     1.194742     -0.013208     0.013273    -0.015988
H      1.465176     1.185863    -0.432169     -0.006377     0.001357     0.002244
14
轮次1  Outer Iteration 12, Energy=-157.2985590751, |grad|=0.075998
C     -1.614812     0.348077    -0.018083      0.001270     0.002432    -0.000247
C     -0.572962    -0.575489    -0.694614      0.007726    -0.009002    -0.017089
C      0.734363    -0.751337     0.090403     -0.008413     0.018807    -0.021288
C      1.495454     0.536249     0.433943      0.022347    -0.023588     0.046553
H     -1.189273     0.945732     0.789469     -0.000407    -0.001376     0.002238
H     -2.433302    -0.230694     0.416335     -0.001139     0.000483    -0.001503
H     -2.064022     1.039618    -0.734003     -0.000281     0.000005    -0.000100
H     -0.372872    -0.199406    -1.702255     -0.005528     0.005304    -0.000743
H     -1.028668    -1.566002    -0.779757     -0.004577    -0.000807     0.012957
H      0.509221    -1.288686     1.020959      0.003309    -0.003857    -0.001762
H      1.376092    -1.459196    -0.447641     -0.002137    -0.010431     0.006785
H      2.553951     0.414787     0.665715      0.005740     0.011199    -0.014456
H      0.974861     1.129461     1.188187     -0.011439     0.009073    -0.012630
H      1.471226     1.187649    -0.451541     -0.006472     0.001757     0.001286
14
轮次1  Outer Iteration 13, Energy=-157.3006567059, |grad|=0.049940
C     -1.619274     0.345953    -0.013885      0.001323     0.002302     0.000240
C     -0.575527    -0.570323    -0.688769      0.001445    -0.003730    -0.010463
C      0.732808    -0.749975     0.095196     -0.002445     0.012589    -0.013708
C      1.491282     0.541779     0.418475      0.015934    -0.014801     0.030963
H     -1.192149     0.952210     0.785739     -0.000422    -0.001304     0.001248
H     -2.427898    -0.240724     0.428096     -0.000556    -0.000634    -0.001667
H     -2.075305     1.032210    -0.730542      0.000703     0.000834     0.000020
H     -0.359751    -0.197615    -1.694439     -0.003512     0.001565    -0.000883
H     -1.021457    -1.562235    -0.798379     -0.001958    -0.000360     0.009429
H      0.504781    -1.277919     1.029035      0.000644    -0.002646    -0.002463
H      1.374933    -1.450286    -0.451306     -0.000996    -0.007664     0.004648
H      2.539081     0.392185     0.681573      0.004043     0.006983    -0.009720
H      0.980871     1.127435     1.185089     -0.008491     0.005221    -0.008431
H      1.486861     1.188068    -0.468766     -0.005711     0.001645     0.000787
14
轮次1  Outer Iteration 14, Energy=-157.3020163552, |grad|=0.028746
C     -1.629381     0.339605    -0.011267      0.000037     0.001117    -0.000006
C     -0.576599    -0.566226    -0.684399      0.001450    -0.000619    -0.006459
C      0.731274    -0.748086     0.099577      0.000988     0.007202    -0.007338
C      1.491558     0.545204     0.406880      0.009518    -0.007918     0.017080
H     -1.199050     0.962198     0.773085     -0.000656    -0.002411     0.000471
H     -2.431594    -0.241534     0.450840     -0.002634     0.001517    -0.000538
H     -2.098449     1.010705    -0.732680      0.001221     0.000198     0.000856
H     -0.348129    -0.188135    -1.685423     -0.002005    -0.001149    -0.001193
H     -1.014519    -1.557752    -0.821057     -0.000592     0.000669     0.006527
H      0.505388    -1.268809     1.036887     -0.000855    -0.001412    -0.002528
H      1.373746    -1.439687    -0.457157      0.000049    -0.005058     0.002365
H      2.528291     0.367843     0.699068      0.002914     0.003771    -0.005230
H      0.994649     1.128351     1.184547     -0.005111     0.002307    -0.004132
H      1.512072     1.187085    -0.481786     -0.004324     0.001785     0.000125
14
轮次1  Inner Iteration 1, |pred_grad|=0.131473
C     -1.629381     0.339605    -0.011267      0.002489     0.027122     0.004014
C     -0.576599    -0.566226    -0.684399      0.036845    -0.026346    -0.026052
C      0.731274    -0.748086     0.099577     -0.047378     0.046966     0.004512
C      1.491558     0.545204     0.406880      0.035666    -0.042315     0.049173
H     -1.199050     0.962198     0.773085      0.001173    -0.006116     0.003296
H     -2.431594    -0.241534     0.450840     -0.002728    -0.000179    -0.004132
H     -2.098449     1.010705    -0.732680     -0.003118    -0.006737    -0.002175
H     -0.348129    -0.188135    -1.685423     -0.016098     0.010248     0.000148
H     -1.014519    -1.557752    -0.821057     -0.008020     0.002229     0.010419
H      0.505388    -1.268809     1.036887      0.009198    -0.003501    -0.001250
H      1.373746    -1.439687    -0.457157      0.017251    -0.041610    -0.012735
H      2.528291     0.367843     0.699068      0.006018     0.017525    -0.015033
H      0.994649     1.128351     1.184547     -0.011351     0.008276    -0.009375
H      1.512072     1.187085    -0.481786     -0.004947    -0.000462    -0.000597
14
轮次1  Inner Iteration 2, |pred_grad|=0.128857
C     -1.629630     0.336893    -0.011668      0.002453     0.026785     0.003773
C     -0.580284    -0.563592    -0.681794      0.036910    -0.025349    -0.025538
C      0.736012    -0.752782     0.099126     -0.046354     0.045089     0.003936
C      1.487992     0.549435     0.401962      0.035354    -0.040979     0.048284
H     -1.199167     0.962810     0.772756      0.001154    -0.006052     0.003250
H     -2.431321    -0.241516     0.451253     -0.002699    -0.000127    -0.003998
H     -2.098137     1.011379    -0.732462     -0.003046    -0.006682    -0.002068
H     -0.346519    -0.189159    -1.685438     -0.015864     0.010123     0.000048
H     -1.013717    -1.557975    -0.822099     -0.007812     0.002113     0.010368
H      0.504468    -1.268459     1.037012      0.008761    -0.003563    -0.001214
H      1.372021    -1.435526    -0.455883      0.016772    -0.041269    -0.012837
H      2.527689     0.366090     0.700571      0.005997     0.017118    -0.014858
H      0.995784     1.127523     1.185485     -0.011194     0.008193    -0.009337
H      1.512567     1.187131    -0.481726     -0.004941    -0.000374    -0.000444
14
轮次1  Inner Iteration 3, |pred_grad|=0.126199
C     -1.629875     0.334214    -0.012046      0.002411     0.026434     0.003569
C     -0.583975    -0.561057    -0.679240      0.037154    -0.024551    -0.024922
C      0.740647    -0.757291     0.098733     -0.045526     0.043370     0.003226
C      1.484456     0.553533     0.397134      0.034979    -0.039191     0.047509
H     -1.199282     0.963415     0.772431      0.001147    -0.005923     0.003180
H     -2.431052    -0.241503     0.451653     -0.002649    -0.000088    -0.003836
H     -2.097832     1.012047    -0.732255     -0.003003    -0.006525    -0.001966
H     -0.344933    -0.190172    -1.685442     -0.015512     0.009926    -0.000047
H     -1.012936    -1.558186    -0.823136     -0.007556     0.001961     0.010289
H      0.503592    -1.268102     1.037133      0.008353    -0.003604    -0.001170
H      1.370343    -1.431399    -0.454600      0.016252    -0.040637    -0.013033
H      2.527089     0.364379     0.702057      0.005979     0.016660    -0.014620
H      0.996903     1.126704     1.186418     -0.011023     0.008080    -0.009302
H      1.513061     1.187168    -0.481682     -0.004938    -0.000258    -0.000277
14
轮次1  Inner Iteration 4, |pred_grad|=0.123961
C     -1.630117     0.331571    -0.012402      0.002386     0.026173     0.003425
C     -0.587690    -0.558602    -0.676748      0.037994    -0.023950    -0.024262
C      0.745200    -0.761628     0.098410     -0.044981     0.041752     0.002601
C      1.480958     0.557452     0.392383      0.034795    -0.037041     0.046950
H     -1.199397     0.964007     0.772113      0.001179    -0.005680     0.003095
H     -2.430787    -0.241494     0.452037     -0.002582    -0.000070    -0.003658
H     -2.097532     1.012700    -0.732059     -0.003018    -0.006330    -0.001855
H     -0.343381    -0.191164    -1.685438     -0.015140     0.009667    -0.000133
H     -1.012180    -1.558382    -0.824165     -0.007280     0.001829     0.010158
H      0.502757    -1.267742     1.037250      0.007985    -0.003611    -0.001116
H      1.368718    -1.427335    -0.453296      0.015895    -0.039892    -0.013433
H      2.526491     0.362713     0.703519      0.005963     0.016316    -0.014321
H      0.998006     1.125896     1.187349     -0.010823     0.007956    -0.009254
H      1.513555     1.187194    -0.481654     -0.004935    -0.000133    -0.000138
14
轮次1  Inner Iteration 5, |pred_grad|=0.122339
C     -1.630355     0.328954    -0.012745      0.002383     0.025613     0.003290
C     -0.591490    -0.556207    -0.674322      0.038923    -0.022975    -0.023880
C      0.749698    -0.765803     0.098150     -0.044182     0.040396     0.002392
C      1.477479     0.561156     0.387688      0.035020    -0.035446     0.046433
H     -1.199515     0.964575     0.771803      0.001225    -0.005505     0.003027
H     -2.430528    -0.241487     0.452403     -0.002551    -0.000039    -0.003521
H     -2.097230     1.013333    -0.731873     -0.002986    -0.006199    -0.001736
H     -0.341867    -0.192131    -1.685424     -0.015035     0.009457    -0.000190
H     -1.011452    -1.558565    -0.825180     -0.007114     0.001832     0.010057
H      0.501958    -1.267381     1.037362      0.007709    -0.003655    -0.001095
H      1.367129    -1.423346    -0.451953      0.015746    -0.039681    -0.013965
H      2.525895     0.361081     0.704951      0.005918     0.016182    -0.014077
H      0.999088     1.125100     1.188274     -0.010685     0.007893    -0.009198
H      1.514048     1.187207    -0.481640     -0.004929    -0.000045    -0.000073
14
轮次2  Outer Iteration 0, Energy=-157.3020163552, |grad|=0.028746
C     -1.629381     0.339605    -0.011267      0.000037     0.001117    -0.000006
C     -0.576599    -0.566226    -0.684399      0.001450    -0.000619    -0.006459
C      0.731274    -0.748086     0.099577      0.000988     0.007202    -0.007338
C      1.491558     0.545204     0.406880      0.009518    -0.007918     0.017080
H     -1.199050     0.962198     0.773085     -0.000656    -0.002411     0.000471
H     -2.431594    -0.241534     0.450840     -0.002634     0.001517    -0.000538
H     -2.098449     1.010705    -0.732680      0.001221     0.000198     0.000856
H     -0.348129    -0.188135    -1.685423     -0.002005    -0.001149    -0.001193
H     -1.014519    -1.557752    -0.821057     -0.000592     0.000669     0.006527
H      0.505388    -1.268809     1.036887     -0.000855    -0.001412    -0.002528
H      1.373746    -1.439687    -0.457157      0.000049    -0.005058     0.002365
H      2.528291     0.367843     0.699068      0.002914     0.003771    -0.005230
H      0.994649     1.128351     1.184547     -0.005111     0.002307    -0.004132
H      1.512072     1.187085    -0.481786     -0.004324     0.001785     0.000125
14
轮次2  Outer Iteration 1, Energy=-157.3030521883, |grad|=0.013583
C     -1.655084     0.325909    -0.004849      0.000042     0.003285     0.000123
C     -0.579410    -0.550142    -0.676091      0.000755     0.001059    -0.001001
C      0.715903    -0.736201     0.121470      0.003041    -0.000674     0.004859
C      1.499585     0.550008     0.378810     -0.002757     0.001387    -0.004613
H     -1.247749     0.961572     0.783226     -0.001640    -0.000859     0.001299
H     -2.430790    -0.293570     0.450371      0.000160    -0.001105    -0.002430
H     -2.145539     0.984302    -0.725322      0.001083     0.002026     0.000207
H     -0.324844    -0.142141    -1.658578     -0.001419    -0.002962    -0.000562
H     -0.997949    -1.541788    -0.870576      0.001253    -0.000975     0.002357
H      0.497018    -1.240543     1.070975     -0.001682    -0.002840     0.000716
H      1.361645    -1.415258    -0.442596      0.001462     0.003103     0.000087
H      2.507608     0.300389     0.712659     -0.003435    -0.002676    -0.001323
H      1.049608     1.163244     1.160965      0.002389    -0.002292     0.001199
H      1.589255     1.164982    -0.523347      0.000748     0.003524    -0.000918
14
轮次2  Outer Iteration 2, Energy=-157.3038051060, |grad|=0.007919
C     -1.651917     0.314282     0.004950      0.000028     0.000191     0.000739
C     -0.579574    -0.542203    -0.692001      0.000676    -0.001641    -0.002145
C      0.709596    -0.734115     0.113202     -0.000139     0.002582    -0.001240
C      1.503154     0.545545     0.381629     -0.001585     0.000884    -0.000285
H     -1.223299     0.965814     0.768953      0.000330    -0.001317     0.001911
H     -2.401467    -0.309272     0.497425     -0.001112     0.000325    -0.001818
H     -2.178167     0.954767    -0.705915      0.001748     0.001569     0.000132
H     -0.322237    -0.107879    -1.663180     -0.000761    -0.002792    -0.001197
H     -0.999487    -1.528052    -0.912617     -0.000567    -0.000733     0.001559
H      0.476443    -1.219480     1.067415     -0.000175     0.001110    -0.000044
H      1.350523    -1.430868    -0.435500      0.000107     0.000928    -0.000397
H      2.498304     0.307714     0.766068      0.000498     0.000492     0.000102
H      1.024566     1.189227     1.122650      0.001958    -0.000539     0.002163
H      1.632820     1.125281    -0.535965     -0.001004    -0.001059     0.000520
14
轮次2  Outer Iteration 3, Energy=-157.3046126384, |grad|=0.009704
C     -1.661981     0.307584     0.011529     -0.001774     0.000062    -0.001904
C     -0.573783    -0.517885    -0.695071      0.002130     0.002197     0.001455
C      0.709739    -0.737586     0.112354     -0.000179    -0.001190    -0.003509
C      1.517005     0.534557     0.380026     -0.000560     0.000926     0.000464
H     -1.238780     0.997425     0.743577      0.000412    -0.002459     0.001341
H     -2.368382    -0.333332     0.544706     -0.002050     0.000778    -0.001725
H     -2.238985     0.904139    -0.697904      0.001072     0.001835     0.000969
H     -0.314967    -0.051065    -1.651435     -0.001567    -0.001504    -0.001847
H     -0.986796    -1.499213    -0.944751      0.000575    -0.000529     0.003432
H      0.460172    -1.217279     1.064746     -0.000293     0.000672    -0.001299
H      1.342721    -1.450621    -0.425883      0.001163    -0.001002     0.000932
H      2.496457     0.300708     0.807680      0.002683     0.000911    -0.000369
H      1.009851     1.207197     1.075414     -0.000180     0.000265     0.000736
H      1.686986     1.086136    -0.547871     -0.001433    -0.000964     0.001324
14
轮次2  Outer Iteration 4, Energy=-157.3054475052, |grad|=0.008096
C     -1.662719     0.301422     0.018598      0.000468     0.000673    -0.000432
C     -0.572389    -0.501468    -0.705239      0.001075     0.000697    -0.000847
C      0.703184    -0.733968     0.110967     -0.000647     0.001265    -0.001281
C      1.525033     0.527393     0.381380      0.001280     0.000074     0.001633
H     -1.245065     1.037270     0.707989     -0.000346    -0.001962     0.001916
H     -2.315499    -0.353290     0.601657     -0.001840     0.000059    -0.001827
H     -2.293321     0.843230    -0.689142      0.001794     0.001734     0.000486
H     -0.311824    -0.008385    -1.647948     -0.002125    -0.001157    -0.001899
H     -0.981172    -1.477971    -0.980222      0.000947    -0.000968     0.003223
H      0.439398    -1.211930     1.061123     -0.000639    -0.000396    -0.000970