14
Iteration 0, Energy=-156.9719208364, |grad|=1.140868
C     -1.611191     0.525590     0.082095      0.217835     0.413565     0.167081
C     -0.508036    -0.678075    -0.819840     -0.019575    -0.463419    -0.144614
C      0.550269    -0.519320     0.159815     -0.250108     0.269951     0.306443
C      1.519909     0.426031     0.553073     -0.056612    -0.340555     0.154803
H     -0.949130     0.758950     0.711728     -0.146256    -0.133872    -0.204629
H     -2.537772    -0.313555     0.457839     -0.116152    -0.109767     0.009495
H     -2.095003     0.958355    -0.680449      0.047890    -0.126864     0.081763
H     -0.511953    -0.301315    -1.774464     -0.047664    -0.045876     0.088347
H     -1.004698    -1.448173    -0.836198      0.172064     0.339702    -0.021026
H      0.420612    -1.016991     0.946552      0.099778     0.182811    -0.249885
H      1.435987    -1.557012    -0.498001      0.063263    -0.080437    -0.070125
H      2.664656     0.555513     0.784499      0.096081     0.080159     0.002256
H      0.919747     1.058037     1.262048     -0.051333    -0.012722     0.008735
H      1.545860     1.082728    -0.571581     -0.009211     0.027324    -0.128643
14
Iteration 1, Energy=-157.0516182384, |grad|=0.866583
C     -1.631987     0.507708     0.061014      0.115897     0.334271     0.105759
C     -0.505048    -0.673143    -0.814130      0.089069    -0.319030    -0.119150
C      0.564132    -0.532101     0.155169     -0.254403     0.295779     0.198532
C      1.543936     0.437536     0.549887     -0.014259    -0.303346     0.159160
H     -0.978172     0.805189     0.766640     -0.034784    -0.090686    -0.093704
H     -2.535822    -0.297541     0.432614     -0.105710    -0.097402     0.006977
H     -2.138806     0.967246    -0.715252      0.016670    -0.095470     0.034907
H     -0.509038    -0.281591    -1.780657     -0.046309    -0.029780     0.061268
H     -1.025698    -1.504196    -0.832281      0.070453     0.179584    -0.016262
H      0.434651    -1.060205     0.976173      0.076697     0.116314    -0.150060
H      1.438057    -1.551305    -0.507403      0.065209    -0.083580    -0.071731
H      2.670482     0.555140     0.763333      0.076455     0.079180    -0.003010
H      0.959294     1.065882     1.266464     -0.045398    -0.011755     0.006819
H      1.553276     1.092142    -0.544453     -0.009587     0.025921    -0.119505
14
Iteration 2, Energy=-157.1078732597, |grad|=0.745877
C     -1.655214     0.480351     0.035825      0.076102     0.279237     0.096965
C     -0.511115    -0.665792    -0.801224      0.125526    -0.266714    -0.106150
C      0.584682    -0.550419     0.154454     -0.254315     0.294060     0.138351
C      1.575854     0.450346     0.546034      0.031764    -0.259028     0.157760
H     -1.054827     0.842871     0.790087     -0.012095    -0.073204    -0.058929
H     -2.524131    -0.277080     0.402229     -0.084095    -0.074294     0.001322
H     -2.177718     0.965038    -0.743694     -0.000541    -0.074486     0.012486
H     -0.515908    -0.259846    -1.777060     -0.046138    -0.015698     0.041123
H     -1.039072    -1.531323    -0.818858      0.030925     0.116465    -0.011271
H      0.457177    -1.103762     1.001469      0.060996     0.072197    -0.088581
H      1.435345    -1.544495    -0.515327      0.067712    -0.087772    -0.074290
H      2.683188     0.546194     0.733997      0.051230     0.076787    -0.009962
H      1.015043     1.077643     1.272532     -0.037456    -0.009346     0.003440
H      1.565952     1.101038    -0.503348     -0.009615     0.021797    -0.102265
14
Iteration 3, Energy=-157.1513531207, |grad|=0.650378
C     -1.664128     0.450640     0.011629      0.032455     0.216550     0.076072
C     -0.523404    -0.655263    -0.787531      0.144420    -0.223257    -0.099027
C      0.600889    -0.568896     0.153843     -0.249841     0.284351     0.108062
C      1.593792     0.464592     0.540778      0.062019    -0.218822     0.145593
H     -1.102361     0.867314     0.803910      0.008250    -0.052382    -0.023037
H     -2.499594    -0.263538     0.373600     -0.055063    -0.047476    -0.007864
H     -2.192853     0.960506    -0.767043     -0.009889    -0.059765     0.000548
H     -0.526520    -0.238046    -1.769526     -0.046734    -0.004325     0.028820
H     -1.056279    -1.551380    -0.804510      0.002951     0.070371    -0.006004
H      0.474241    -1.139463     1.019465      0.051133     0.044505    -0.052547
H      1.424305    -1.535344    -0.517936      0.068875    -0.091498    -0.076386
H      2.689186     0.537073     0.706491      0.032245     0.073448    -0.015562
H      1.053590     1.092656     1.275381     -0.031928    -0.005597    -0.000099
H      1.568392     1.109913    -0.461436     -0.008891     0.013896    -0.078570
14
Iteration 4, Energy=-157.1855977422, |grad|=0.575113
C     -1.668487     0.422455    -0.011215      0.009884     0.164293     0.064894
C     -0.536990    -0.642177    -0.771608      0.145782    -0.190442    -0.093314
C      0.619831    -0.589976     0.152341     -0.237862     0.267331     0.089312
C      1.608569     0.477672     0.534859      0.079655    -0.179662     0.126808
H     -1.155176     0.886883     0.804056      0.010871    -0.039857    -0.007674
H     -2.485493    -0.257829     0.352102     -0.030374    -0.025176    -0.014323
H     -2.198291     0.957189    -0.786704     -0.015137    -0.046498    -0.006095
H     -0.535248    -0.215784    -1.758420     -0.047295     0.005413     0.020315
H     -1.070307    -1.561529    -0.787978     -0.013466     0.042199    -0.000610
H      0.492638    -1.173851     1.033450      0.043490     0.023800    -0.027405
H      1.411583    -1.524953    -0.517088      0.068924    -0.094208    -0.077078
H      2.698203     0.524357     0.680526      0.020588     0.069036    -0.019274
H      1.088405     1.108098     1.277409     -0.027493    -0.000629    -0.003373
H      1.570020     1.120208    -0.424613     -0.007567     0.004400    -0.052182
14
Iteration 5, Energy=-157.2135342711, |grad|=0.505256
C     -1.664666     0.397457    -0.030300      0.001370     0.120753     0.047355
C     -0.550811    -0.629043    -0.757002      0.134067    -0.160572    -0.086528
C      0.638100    -0.613624     0.148201     -0.220000     0.243031     0.077419
C      1.613836     0.490002     0.528616      0.086401    -0.143870     0.107924
H     -1.190697     0.900812     0.799416      0.011248    -0.028662     0.003340
H     -2.476212    -0.257954     0.339862     -0.015633    -0.012523    -0.016414
H     -2.190180     0.957351    -0.799423     -0.016669    -0.035822    -0.008671
H     -0.539042    -0.197135    -1.748150     -0.047082     0.013161     0.014480
H     -1.081346    -1.566046    -0.773359     -0.022679     0.024720     0.004579
H      0.507049    -1.204233     1.041399      0.037755     0.010121    -0.012209
H      1.397048    -1.514056    -0.510981      0.066830    -0.094623    -0.075083
H      2.700825     0.511180     0.660017      0.014460     0.063407    -0.021487
H      1.109275     1.123639     1.276578     -0.024126     0.004839    -0.006204
H      1.566078     1.132414    -0.397759     -0.005944    -0.003961    -0.028502
14
Iteration 6, Energy=-157.2368669850, |grad|=0.435417
C     -1.657155     0.377835    -0.043478      0.003860     0.086536     0.030627
C     -0.561968    -0.617750    -0.744551      0.114256    -0.131568    -0.078260
C      0.657245    -0.640262     0.140673     -0.195305     0.211727     0.065538
C      1.610837     0.500374     0.521937      0.085173    -0.114273     0.094345
H     -1.215053     0.910927     0.792327      0.008202    -0.021027     0.007805
H     -2.470931    -0.256359     0.336876     -0.008477    -0.005823    -0.015177
H     -2.175164     0.962631    -0.803975     -0.016341    -0.026960    -0.008701
H     -0.534745    -0.184102    -1.739862     -0.045234     0.018617     0.010073
H     -1.086866    -1.568374    -0.761972     -0.026715     0.013776     0.009157
H      0.518957    -1.231991     1.043825      0.032999     0.001275    -0.003191
H      1.384107    -1.503570    -0.500652      0.061666    -0.091178    -0.068959
H      2.696775     0.498439     0.645838      0.012100     0.056704    -0.022532
H      1.116199     1.136925     1.272784     -0.021473     0.010276    -0.008383
H      1.557017     1.146041    -0.382655     -0.004710    -0.008084    -0.012343
14
Iteration 7, Energy=-157.2563146056, |grad|=0.361348
C     -1.647388     0.364498    -0.049660      0.007955     0.059429     0.016524
C     -0.569518    -0.609399    -0.735142      0.090951    -0.104469    -0.069146
C      0.676570    -0.669258     0.129526     -0.163585     0.173254     0.049363
C      1.598832     0.509006     0.513927      0.078677    -0.090115     0.086322
H     -1.225165     0.918880     0.787044      0.004965    -0.015069     0.009595
H     -2.465097    -0.251440     0.341762     -0.004785    -0.001991    -0.012753
H     -2.155081     0.973825    -0.800223     -0.014802    -0.019679    -0.007389
H     -0.521368    -0.178061    -1.734604     -0.041263     0.021602     0.006353
H     -1.086622    -1.570329    -0.754944     -0.026662     0.007135     0.012849
H      0.527218    -1.256721     1.041290      0.028646    -0.003927     0.001661
H      1.373641    -1.494180    -0.486789      0.051996    -0.082031    -0.057297
H      2.683765     0.487543     0.638004      0.011215     0.049240    -0.022962
H      1.107344     1.147259     1.264469     -0.019241     0.015067    -0.010287
H      1.542125     1.159140    -0.377544     -0.004067    -0.008445    -0.002833
14
Iteration 8, Energy=-157.2719041773, |grad|=0.281653
C     -1.636355     0.356886    -0.049292      0.009975     0.039335     0.006971
C     -0.573061    -0.603308    -0.727940      0.068336    -0.079534    -0.059676
C      0.695783    -0.698934     0.115660     -0.124357     0.128032     0.026625
C      1.578747     0.515976     0.503630      0.068080    -0.070022     0.081783
H     -1.223036     0.925590     0.784541      0.002126    -0.010552     0.009388
H     -2.458066    -0.243281     0.353475     -0.003091     0.000152    -0.009732
H     -2.131133     0.990187    -0.789648     -0.012463    -0.013531    -0.005570
H     -0.498820    -0.178083    -1.731283     -0.035145     0.022200     0.003119
H     -1.080975    -1.572375    -0.751923     -0.023838     0.002826     0.015617
H      0.531683    -1.277859     1.035026      0.024161    -0.006539     0.003914
H      1.366491    -1.485967    -0.471151      0.036633    -0.065638    -0.039397
H      2.662187     0.478262     0.635571      0.010880     0.041224    -0.022981
H      1.083783     1.153434     1.251037     -0.017273     0.018581    -0.012284
H      1.522028     1.170234    -0.380586     -0.004025    -0.006533     0.002222
14
Iteration 9, Energy=-157.2833312908, |grad|=0.202093
C     -1.623531     0.353150    -0.043176      0.008798     0.023689     0.001631
C     -0.573429    -0.597779    -0.721354      0.047658    -0.056078    -0.048979
C      0.712885    -0.725959     0.101158     -0.080031     0.080142    -0.000748
C      1.551254     0.521622     0.489825      0.054530    -0.053333     0.078334
H     -1.209291     0.931109     0.785309      0.000535    -0.006669     0.008373
H     -2.447512    -0.234179     0.370464     -0.001802     0.001254    -0.006850
H     -2.102756     1.009978    -0.773703     -0.009306    -0.008177    -0.003952
H     -0.467398    -0.182646    -1.727982     -0.027079     0.020472     0.000494
H     -1.070685    -1.573741    -0.752539     -0.019213    -0.000090     0.017410
H      0.530515    -1.293357     1.026727      0.019041    -0.007221     0.004328
H      1.363182    -1.478842    -0.456142      0.016733    -0.042965    -0.017155
H      2.631793     0.469090     0.637800      0.010234     0.032771    -0.022590
H      1.046716     1.153842     1.232193     -0.015554     0.019818    -0.014594
H      1.497513     1.178474    -0.391464     -0.004544    -0.003615     0.004297
14
Iteration 10, Energy=-157.2907840282, |grad|=0.142269
C     -1.613344     0.351642    -0.033166      0.005261     0.012308    -0.000183
C     -0.571466    -0.591035    -0.713146      0.031027    -0.035094    -0.036816
C      0.725578    -0.744604     0.090359     -0.041590     0.042944    -0.022053
C      1.522213     0.526131     0.471611      0.040194    -0.040800     0.072534
H     -1.193272     0.936366     0.788082     -0.000104    -0.003548     0.006457
H     -2.438078    -0.226620     0.390287     -0.001277     0.001465    -0.003998
H     -2.075937     1.029429    -0.755194     -0.005550    -0.003695    -0.002401
H     -0.428529    -0.189859    -1.721723     -0.017725     0.016254    -0.001086
H     -1.055188    -1.573472    -0.756970     -0.013559    -0.001803     0.017730
H      0.523601    -1.300211     1.019075      0.013095    -0.006440     0.002788
H      1.366436    -1.473091    -0.446475      0.000944    -0.022849     0.000909
H      2.597570     0.456110     0.643956      0.009054     0.024217    -0.021347
H      1.005003     1.146644     1.210541     -0.014252     0.017703    -0.016514
H      1.474670     1.183333    -0.410122     -0.005519    -0.000662     0.003979
14
Iteration 11, Energy=-157.2954617746, |grad|=0.105660
C     -1.611153     0.350578    -0.023972      0.002067     0.005545    -0.000354
C     -0.570920    -0.582441    -0.702797      0.018001    -0.019174    -0.025079
C      0.731843    -0.751040     0.087711     -0.020517     0.026942    -0.026337
C      1.503231     0.530638     0.451738      0.029566    -0.032139     0.061641
H     -1.187263     0.941816     0.790277     -0.000126    -0.001635     0.004174
H     -2.433001    -0.227449     0.404944     -0.000883     0.000565    -0.002279
H     -2.062080     1.040374    -0.741519     -0.002140    -0.000809    -0.001222
H     -0.394424    -0.195859    -1.711437     -0.010017     0.010637    -0.001084
H     -1.039826    -1.570008    -0.765253     -0.008428    -0.001902     0.016110
H      0.514766    -1.297239     1.016799      0.007447    -0.005111     0.000023
H      1.372823    -1.467393    -0.444959     -0.002694    -0.014368     0.006792
H      2.570892     0.436749     0.653009      0.007309     0.016819    -0.018644
H      0.979194     1.136174     1.194742     -0.013208     0.013273    -0.015988
H      1.465176     1.185863    -0.432169     -0.006377     0.001357     0.002244
14
Iteration 12, Energy=-157.2985590752, |grad|=0.075998
C     -1.614812     0.348077    -0.018083      0.001270     0.002432    -0.000247
C     -0.572962    -0.575489    -0.694614      0.007726    -0.009002    -0.017089
C      0.734363    -0.751337     0.090403     -0.008413     0.018807    -0.021288
C      1.495454     0.536249     0.433943      0.022347    -0.023588     0.046553
H     -1.189273     0.945732     0.789469     -0.000407    -0.001376     0.002238
H     -2.433302    -0.230694     0.416335     -0.001139     0.000483    -0.001503
H     -2.064022     1.039618    -0.734003     -0.000281     0.000005    -0.000100
H     -0.372872    -0.199406    -1.702255     -0.005528     0.005304    -0.000743
H     -1.028668    -1.566002    -0.779757     -0.004577    -0.000807     0.012957
H      0.509221    -1.288686     1.020959      0.003309    -0.003857    -0.001762
H      1.376092    -1.459196    -0.447641     -0.002137    -0.010431     0.006785
H      2.553951     0.414787     0.665715      0.005740     0.011199    -0.014456
H      0.974861     1.129461     1.188187     -0.011439     0.009073    -0.012630
H      1.471226     1.187649    -0.451541     -0.006472     0.001757     0.001286
14
Iteration 13, Energy=-157.3006567059, |grad|=0.049940
C     -1.619274     0.345953    -0.013885      0.001323     0.002302     0.000240
C     -0.575527    -0.570323    -0.688769      0.001445    -0.003730    -0.010463
C      0.732808    -0.749975     0.095196     -0.002445     0.012589    -0.013708
C      1.491282     0.541779     0.418475      0.015934    -0.014801     0.030963
H     -1.192149     0.952210     0.785739     -0.000422    -0.001304     0.001248
H     -2.427898    -0.240724     0.428096     -0.000556    -0.000634    -0.001667
H     -2.075305     1.032210    -0.730542      0.000703     0.000834     0.000020
H     -0.359751    -0.197615    -1.694439     -0.003512     0.001565    -0.000883
H     -1.021457    -1.562235    -0.798379     -0.001958    -0.000360     0.009429
H      0.504781    -1.277919     1.029035      0.000644    -0.002646    -0.002463
H      1.374933    -1.450286    -0.451306     -0.000996    -0.007664     0.004648
H      2.539081     0.392185     0.681573      0.004043     0.006983    -0.009720
H      0.980871     1.127435     1.185089     -0.008491     0.005221    -0.008431
H      1.486861     1.188068    -0.468766     -0.005711     0.001645     0.000787
14
Iteration 14, Energy=-157.3020163551, |grad|=0.028746
C     -1.629381     0.339605    -0.011267      0.000036     0.001117    -0.000006
C     -0.576599    -0.566226    -0.684399      0.001450    -0.000619    -0.006459
C      0.731274    -0.748086     0.099577      0.000988     0.007202    -0.007338
C      1.491558     0.545204     0.406880      0.009518    -0.007918     0.017080
H     -1.199050     0.962198     0.773085     -0.000656    -0.002411     0.000471
H     -2.431594    -0.241533     0.450840     -0.002634     0.001517    -0.000538
H     -2.098449     1.010705    -0.732680      0.001221     0.000198     0.000856
H     -0.348129    -0.188135    -1.685423     -0.002005    -0.001149    -0.001193
H     -1.014519    -1.557752    -0.821057     -0.000592     0.000669     0.006527
H      0.505388    -1.268809     1.036887     -0.000855    -0.001412    -0.002528
H      1.373746    -1.439687    -0.457157      0.000049    -0.005058     0.002365
H      2.528291     0.367843     0.699068      0.002914     0.003771    -0.005230
H      0.994649     1.128351     1.184547     -0.005111     0.002307    -0.004132
H      1.512072     1.187085    -0.481786     -0.004324     0.001785     0.000125
14
Iteration 15, Energy=-157.3028347953, |grad|=0.015812
C     -1.628234     0.340801    -0.009458      0.003381     0.003373    -0.000955
C     -0.580705    -0.559523    -0.683755     -0.005987    -0.000718     0.000374
C      0.722994    -0.746324     0.103803      0.003325     0.002557    -0.004290
C      1.488016     0.546622     0.398545      0.004644    -0.001038     0.005722
H     -1.199263     0.988894     0.756543     -0.000624    -0.000218     0.001756
H     -2.392035    -0.271855     0.472662      0.002307    -0.003127    -0.003788
H     -2.131455     0.988217    -0.731156      0.001449     0.002499     0.000034
H     -0.339759    -0.171954    -1.678495     -0.002084    -0.001997    -0.000939
H     -1.014637    -1.550279    -0.846267      0.000599    -0.001295     0.003636
H      0.497355    -1.258867     1.046310     -0.001591    -0.000971    -0.000997
H      1.364482    -1.432005    -0.457251     -0.000997    -0.001288     0.001533
H      2.511233     0.342848     0.719273      0.000460     0.001398    -0.002334
H      1.001962     1.135087     1.178950     -0.002028     0.000153    -0.001056
H      1.539304     1.179101    -0.492587     -0.002855     0.000672     0.001302
14
Iteration 16, Energy=-157.3035810204, |grad|=0.007862
C     -1.641732     0.332815    -0.008044     -0.000672     0.001801    -0.000247
C     -0.579455    -0.553388    -0.684639      0.000399    -0.000563    -0.000067
C      0.720151    -0.744884     0.106003      0.001500     0.001841     0.000134
C      1.491930     0.544012     0.397708      0.000344     0.000635     0.000236
H     -1.203870     1.016096     0.720674     -0.000267    -0.002006     0.001222
H     -2.386801    -0.266527     0.521530     -0.001947     0.000218    -0.001121
H     -2.175390     0.943616    -0.739118      0.001842     0.001943     0.000284
H     -0.329057    -0.148648    -1.670567     -0.000866    -0.002953    -0.001474
H     -1.008553    -1.541231    -0.872949      0.000667    -0.000132     0.002685
H      0.497737    -1.258461     1.047909     -0.001483    -0.000378    -0.001082
H      1.364194    -1.424381    -0.463647      0.001331    -0.001225    -0.000966
H      2.505284     0.320403     0.739074      0.000137     0.000162    -0.000367
H      1.013906     1.138884     1.178241      0.000302    -0.001020     0.000769
H      1.570911     1.172456    -0.495060     -0.001287     0.001677    -0.000007
14
Iteration 17, Energy=-157.3042608359, |grad|=0.008866
C     -1.645889     0.330285    -0.008527     -0.000127     0.000759    -0.001085
C     -0.580001    -0.544768    -0.687832     -0.000581    -0.000464     0.001415
C      0.716538    -0.744484     0.105347      0.002911    -0.000111    -0.001070
C      1.494906     0.539092     0.401681     -0.001396     0.002207    -0.002721
H     -1.207150     1.057353     0.676477     -0.000424    -0.001985     0.001874
H     -2.352416    -0.269467     0.570340     -0.002094     0.001197    -0.001720
H     -2.225837     0.891674    -0.743675      0.001735     0.001793     0.000665
H     -0.322263    -0.123785    -1.665202     -0.000538    -0.003012    -0.001276
H     -1.007178    -1.529674    -0.897076      0.000719    -0.000438     0.001948
H      0.493168    -1.259597     1.046604     -0.001332    -0.000082    -0.000256
H      1.360495    -1.419092    -0.466947      0.000666     0.000998    -0.000292
H      2.499707     0.300238     0.758852     -0.000172    -0.000576     0.000388
H      1.018877     1.140618     1.178595      0.001327    -0.001226     0.001796
H      1.596299     1.162370    -0.491521     -0.000695     0.000940     0.000334
14
Iteration 18, Energy=-157.3049462220, |grad|=0.013251
C     -1.648051     0.328472    -0.009987      0.002026    -0.000364    -0.002670
C     -0.581112    -0.535943    -0.691414     -0.002642    -0.000545     0.003081
C      0.712304    -0.744070     0.104492      0.004189    -0.001951    -0.003399
C      1.497686     0.533419     0.407491     -0.002905     0.003097    -0.004791
H     -1.213041     1.099294     0.628975     -0.000549    -0.001485     0.002750
H     -2.312415    -0.270483     0.616441     -0.001757     0.001748    -0.002982
H     -2.274736     0.835527    -0.745948      0.001543     0.001298     0.001017
H     -0.318815    -0.097112    -1.659943     -0.000888    -0.002256    -0.000991
H     -1.007508    -1.517620    -0.919961      0.000452    -0.001067     0.001316
H      0.488853    -1.262211     1.044869     -0.000766    -0.000008     0.000979
H      1.356270    -1.413149    -0.469703     -0.000590     0.003661     0.001090
H      2.494969     0.281333     0.777567     -0.000237    -0.000819     0.000828
H      1.024781     1.143005     1.180561      0.002331    -0.000967     0.002856
H      1.620073     1.150302    -0.486324     -0.000207    -0.000345     0.000917
14
Iteration 19, Energy=-157.3056058187, |grad|=0.016787
C     -1.650320     0.327135    -0.010769      0.002419    -0.000794    -0.003297
C     -0.581064    -0.527186    -0.696310     -0.002900    -0.001248     0.004403
C      0.707588    -0.743452     0.103551      0.004176    -0.002583    -0.004300
C      1.499450     0.527781     0.412472     -0.003961     0.003811    -0.007221
H     -1.219917     1.137966     0.580938     -0.000557    -0.000983     0.003297
H     -2.268850    -0.268829     0.662909     -0.001386     0.002070    -0.003642
H     -2.322324     0.781395    -0.741391      0.001071     0.001377     0.001289
H     -0.312152    -0.072367    -1.655946     -0.000498    -0.001915    -0.000792
H     -1.006308    -1.505454    -0.943708      0.000332    -0.001612     0.000561
H      0.481480    -1.264130     1.042377     -0.000543     0.000098     0.001803
H      1.353426    -1.407983    -0.471820     -0.000704     0.005466     0.001586
H      2.487994     0.262427     0.797134     -0.000436    -0.001373     0.001047
H      1.026670     1.145752     1.179300      0.002880    -0.000890     0.003546
H      1.643583     1.137708    -0.481621      0.000108    -0.001425     0.001720
14
Iteration 20, Energy=-157.3061840505, |grad|=0.021240
C     -1.646353     0.327790    -0.013141      0.006565    -0.000984    -0.005515
C     -0.582185    -0.517300    -0.703733     -0.005396    -0.002421     0.006704
C      0.699961    -0.741701     0.102515      0.002299    -0.000475    -0.007096
C      1.500218     0.520146     0.422414     -0.003747     0.001104    -0.005783
H     -1.224570     1.177477     0.530942      0.000153     0.000981     0.004251
H     -2.209428    -0.273190     0.702384      0.000745    -0.000239    -0.005696
H     -2.364289     0.724004    -0.734637      0.000708     0.001015     0.000285
H     -0.315572    -0.043275    -1.655357     -0.002456     0.000637    -0.000614
H     -1.011188    -1.492278    -0.963449     -0.001041    -0.003179     0.000415
H      0.470358    -1.268215     1.038679      0.000650    -0.000555     0.003387
H      1.348792    -1.403294    -0.469728     -0.001475     0.007322     0.003214
H      2.483433     0.249114     0.815834     -0.000115    -0.000149     0.000075
H      1.027290     1.151798     1.178752      0.003016     0.000344     0.003822
H      1.662791     1.119688    -0.474361      0.000095    -0.003401     0.002554
14
Iteration 21, Energy=-157.3068279543, |grad|=0.015716
C     -1.652545     0.326082    -0.010000      0.002255    -0.000121    -0.002172
C     -0.580090    -0.509308    -0.707808     -0.002140    -0.002301     0.004550
C      0.698386    -0.742963     0.100578      0.001368    -0.001252    -0.002786
C      1.501654     0.515569     0.424676     -0.004457     0.002599    -0.007416
H     -1.236397     1.211047     0.477784      0.000162     0.000128     0.002911
H     -2.173400    -0.255263     0.754767     -0.001322     0.000371    -0.002581
H     -2.403773     0.670462    -0.724516      0.000933     0.001355    -0.000202
H     -0.303472    -0.024942    -1.651302     -0.000192    -0.000999    -0.000641
H     -1.005358    -1.479826    -0.986964     -0.000182    -0.001966    -0.000599
H      0.463844    -1.272041     1.033018     -0.000042    -0.000137     0.002530
H      1.349205    -1.401780    -0.476408      0.000589     0.006608     0.001449
H      2.473423     0.231161     0.836006     -0.001456    -0.001564     0.000733
H      1.023414     1.146483     1.177003      0.003542    -0.001410     0.003625
H      1.684366     1.116081    -0.469719      0.000943    -0.001313     0.000600
14
Iteration 22, Energy=-157.3073848512, |grad|=0.015142
C     -1.650487     0.327190    -0.010577      0.001038     0.000045    -0.002414
C     -0.577243    -0.501063    -0.717100     -0.000346    -0.002780     0.003629
C      0.696350    -0.745056     0.095461      0.001276    -0.001790    -0.003426
C      1.500878     0.508709     0.432210     -0.004391     0.002387    -0.007296
H     -1.243632     1.244104     0.422360      0.000229    -0.000240     0.002558
H     -2.118655    -0.236262     0.799881     -0.001519     0.001424    -0.002761
H     -2.445948     0.616656    -0.700894     -0.000245     0.001147     0.001364
H     -0.297010    -0.005552    -1.653490      0.000330    -0.001000    -0.000129
H     -1.003031    -1.467595    -1.007593     -0.000009    -0.001382    -0.000649
H      0.452697    -1.276867     1.023278      0.000098     0.000382     0.001862
H      1.349535    -1.404135    -0.477972      0.000731     0.006620     0.002297
H      2.465573     0.220974     0.859106     -0.000470    -0.001825     0.000552
H      1.009851     1.143951     1.172800      0.002637    -0.001090     0.003272
H      1.700377     1.105710    -0.460353      0.000643    -0.001896     0.001141
14
Iteration 23, Energy=-157.3078755892, |grad|=0.009116
C     -1.646359     0.329081    -0.006016      0.000042     0.002063     0.001005
C     -0.574938    -0.492341    -0.726362     -0.000584    -0.003096    -0.001353
C      0.694494    -0.748347     0.090013     -0.001663    -0.000463     0.000243
C      1.499733     0.501948     0.440252     -0.002685     0.001225    -0.003593
H     -1.252950     1.275856     0.368691     -0.000103    -0.000964     0.001298
H     -2.063266    -0.215204     0.847175     -0.001947     0.000286     0.000411
H     -2.471005     0.562812    -0.683070      0.001210     0.000597    -0.000472
H     -0.294617     0.013138    -1.657258      0.000658    -0.001010    -0.000184
H     -1.003000    -1.454352    -1.024010      0.000491    -0.000020    -0.000110
H      0.440387    -1.285483     1.010446      0.000295     0.000479     0.000071
H      1.348766    -1.412106    -0.481474      0.002135     0.003756     0.001407
H      2.457705     0.216737     0.882435     -0.000318    -0.001259    -0.000178
H      0.990960     1.138706     1.166573      0.001630    -0.001341     0.001727
H      1.713347     1.100319    -0.450277      0.000840    -0.000253    -0.000272
14
Iteration 24, Energy=-157.3081622022, |grad|=0.008554
C     -1.644764     0.331632    -0.010126      0.000425     0.000430    -0.003203
C     -0.573431    -0.480167    -0.729740     -0.001585     0.000016     0.004087
C      0.694766    -0.749667     0.085647      0.000555    -0.000642    -0.000610
C      1.502381     0.493973     0.449446     -0.001783    -0.000698    -0.002610
H     -1.270306     1.307395     0.306127      0.001183    -0.000556    -0.000218
H     -2.000777    -0.197770     0.878697      0.000171    -0.001735    -0.000929
H     -2.505466     0.503942    -0.660660      0.000025     0.000418    -0.000183
H     -0.298264     0.033939    -1.657499     -0.001153     0.000134     0.000228
H     -1.006482    -1.437708    -1.034243     -0.000772     0.000965     0.000197
H      0.433466    -1.291353     1.001466      0.000451     0.000631     0.000122
H      1.344103    -1.416469    -0.487635      0.001551     0.002812     0.001800
H      2.452490     0.207838     0.907003     -0.000657    -0.000653     0.000375