9
轮次1  Outer Iteration 0, Energy=-116.7319742627, |grad|=1.847457
C     -0.642010    -0.433633     0.097417      0.357692     0.834027    -0.019498
C     -0.206488     0.680936    -0.231224      0.519169    -1.030979     0.026428
C      0.650292    -0.029567     0.142107     -0.904805     0.553729    -0.084020
H     -1.058598    -1.155201     1.097211     -0.018015    -0.136868     0.122482
H     -0.743841    -1.315983    -1.022961      0.010144    -0.095194    -0.142869
H     -0.711883     1.381193     0.768491     -0.067405     0.030471     0.106094
H     -0.265625     1.282034    -1.024494      0.026109    -0.071465     0.130969
H      1.341036    -0.499181    -0.829799      0.067131    -0.047637    -0.104798
H      1.350200    -0.159151     0.940646      0.009981    -0.036084    -0.034788
9
轮次1  Outer Iteration 1, Energy=-116.8569285444, |grad|=1.134576
C     -0.660590    -0.468757     0.098873      0.180057     0.587301     0.045258
C     -0.232907     0.730791    -0.244527      0.289706    -0.585198    -0.146090
C      0.691027    -0.058531     0.152632     -0.499255     0.312221     0.059912
H     -1.046713    -1.178670     1.083063     -0.009740    -0.133780     0.113193
H     -0.760915    -1.331424    -1.002139      0.007478    -0.098350    -0.142366
H     -0.726239     1.417631     0.744875     -0.070382     0.038630     0.106384
H     -0.306810     1.357075    -1.046128      0.016335    -0.033511     0.098991
H      1.368460    -0.519810    -0.804851      0.070031    -0.048479    -0.098452
H      1.387772    -0.196857     0.955595      0.015770    -0.038835    -0.036830
9
轮次1  Outer Iteration 2, Energy=-116.9327409495, |grad|=0.821605
C     -0.674194    -0.512348     0.094420      0.078512     0.423857     0.089163
C     -0.246809     0.757679    -0.242799      0.218712    -0.389929    -0.185412
C      0.716395    -0.078700     0.153078     -0.325948     0.221562     0.097147
H     -1.036408    -1.183681     1.038421      0.000342    -0.118971     0.086395
H     -0.777774    -1.333322    -0.955000      0.003269    -0.096247    -0.132832
H     -0.710811     1.417602     0.715222     -0.064474     0.036766     0.095422
H     -0.332750     1.408460    -1.058619      0.008620     0.001476     0.065255
H      1.365235    -0.516437    -0.772706      0.059755    -0.040817    -0.080131
H      1.410199    -0.207804     0.965376      0.021212    -0.037697    -0.035007
9
轮次1  Outer Iteration 3, Energy=-116.9850837462, |grad|=0.597519
C     -0.681375    -0.546043     0.083914      0.012855     0.307397     0.111907
C     -0.264066     0.777148    -0.238120      0.151686    -0.253813    -0.196233
C      0.738923    -0.101397     0.150632     -0.199809     0.146316     0.105766
H     -1.023765    -1.173223     0.991035      0.014748    -0.095084     0.048963
H     -0.783413    -1.314799    -0.903018      0.002899    -0.082739    -0.109850
H     -0.698490     1.405926     0.682344     -0.054327     0.026688     0.072738
H     -0.361806     1.439901    -1.059639      0.003178     0.017551     0.053441
H      1.358396    -0.517484    -0.741952      0.043132    -0.030843    -0.053320
H      1.428680    -0.218580     0.972197      0.025637    -0.035473    -0.033413
9
轮次1  Outer Iteration 4, Energy=-117.0190512846, |grad|=0.406154
C     -0.684866    -0.581186     0.067547     -0.036089     0.190243     0.103943
C     -0.276378     0.790434    -0.227738      0.107523    -0.155554    -0.167581
C      0.756129    -0.120058     0.142968     -0.113911     0.097100     0.089148
H     -1.021874    -1.162837     0.951313      0.026410    -0.069052     0.011420
H     -0.785184    -1.293518    -0.851154      0.005255    -0.053216    -0.064654
H     -0.679729     1.389498     0.657172     -0.038575     0.010542     0.040046
H     -0.382152     1.460463    -1.058914     -0.001032     0.030112     0.040974
H      1.350996    -0.515493    -0.722402      0.022508    -0.019515    -0.023803
H      1.436143    -0.215852     0.978603      0.027911    -0.030659    -0.029494
9
轮次1  Outer Iteration 5, Energy=-117.0380641062, |grad|=0.251409
C     -0.680232    -0.610380     0.044879     -0.061234     0.095137     0.055893
C     -0.287040     0.797491    -0.209882      0.071074    -0.085014    -0.122054
C      0.771524    -0.137262     0.130673     -0.056757     0.061428     0.066628
H     -1.033275    -1.139184     0.930424      0.028981    -0.049362    -0.004874
H     -0.782850    -1.278890    -0.823484      0.010682    -0.016257    -0.011332
H     -0.661845     1.377159     0.653456     -0.023559    -0.002944     0.010916
H     -0.398130     1.459550    -1.055060     -0.003222     0.033024     0.032299
H      1.352308    -0.517812    -0.720032      0.006705    -0.013561    -0.004255
H      1.432626    -0.199221     0.986419      0.027331    -0.022453    -0.023221
9
轮次1  Outer Iteration 6, Energy=-117.0496709431, |grad|=0.171029
C     -0.667523    -0.630781     0.027883     -0.061449     0.054945     0.031684
C     -0.293782     0.797966    -0.186161      0.050140    -0.051225    -0.081561
C      0.784726    -0.149621     0.117614     -0.028006     0.041543     0.047662
H     -1.053470    -1.099434     0.924927      0.024426    -0.033635    -0.005694
H     -0.786517    -1.287796    -0.833871      0.011893    -0.010779    -0.002217
H     -0.643814     1.373814     0.675391     -0.015960    -0.004850     0.002661
H     -0.408161     1.436866    -1.052701     -0.003520     0.029701     0.022981
H      1.361765    -0.516353    -0.730542     -0.000659    -0.012820     0.001269
H      1.419859    -0.173210     0.994853      0.023134    -0.012879    -0.016786
9
轮次1  Outer Iteration 7, Energy=-117.0578501021, |grad|=0.112352
C     -0.649404    -0.645654     0.017697     -0.050505     0.032845     0.011637
C     -0.300268     0.795458    -0.165345      0.032150    -0.030158    -0.052081
C      0.797498    -0.161097     0.104629     -0.009381     0.025395     0.031945
H     -1.072694    -1.061503     0.923738      0.016049    -0.021805    -0.001325
H     -0.796860    -1.286088    -0.844033      0.012245    -0.006382     0.002809
H     -0.629968     1.370670     0.699007     -0.011652    -0.005257     0.001970
H     -0.416181     1.400608    -1.056472     -0.002772     0.022932     0.015126
H      1.380850    -0.502409    -0.746155     -0.002893    -0.011966     0.000940
H      1.400111    -0.158535     1.004327      0.016758    -0.005604    -0.011021
9
轮次1  Outer Iteration 8, Energy=-117.0631983624, |grad|=0.065270
C     -0.628669    -0.659906     0.013887     -0.033401     0.019181     0.006654
C     -0.306288     0.791613    -0.145820      0.017042    -0.014784    -0.027444
C      0.806543    -0.170469     0.095257      0.000316     0.012948     0.018288
H     -1.083021    -1.033527     0.920733      0.009623    -0.010213    -0.001985
H     -0.817750    -1.278877    -0.856725      0.009416    -0.006878     0.000005
H     -0.610993     1.376147     0.716156     -0.006337    -0.005501     0.000860
H     -0.423687     1.354980    -1.063303     -0.001887     0.014970     0.008985
H      1.400367    -0.475841    -0.758230     -0.004947    -0.009196     0.000817
H      1.376582    -0.152672     1.015439      0.010175    -0.000528    -0.006178
9
轮次1  Outer Iteration 9, Energy=-117.0661434595, |grad|=0.030613
C     -0.609700    -0.674095     0.014136     -0.015949     0.004336    -0.003811
C     -0.311276     0.786471    -0.131663      0.006053    -0.005226    -0.013960
C      0.813633    -0.178833     0.087989      0.003847     0.003824     0.009612
H     -1.085584    -1.023594     0.922538      0.001686    -0.003986     0.000669
H     -0.850264    -1.254942    -0.862174      0.006863     0.000399     0.005582
H     -0.596658     1.390145     0.722609     -0.002983    -0.003815     0.002172
H     -0.428609     1.304040    -1.076030     -0.000995     0.008058     0.003409
H      1.428614    -0.434908    -0.766387     -0.003256    -0.004761    -0.000897
H      1.352929    -0.162833     1.026375      0.004734     0.001170    -0.002775
9
轮次1  Outer Iteration 10, Energy=-117.0672002744, |grad|=0.013187
C     -0.596017    -0.684764     0.013413      0.000247    -0.000024     0.005126
C     -0.317000     0.784091    -0.116778     -0.003597     0.004090     0.000878
C      0.815173    -0.183091     0.083714      0.002621    -0.001892     0.003270
H     -1.061653    -1.028444     0.924531      0.002261     0.002522    -0.003714
H     -0.894082    -1.233996    -0.876089     -0.001011    -0.003532    -0.004800
H     -0.576152     1.420363     0.716696      0.002455    -0.002487    -0.002364
H     -0.435506     1.252208    -1.085300     -0.000512     0.000750     0.001159
H      1.454697    -0.393544    -0.762207     -0.003201    -0.000747     0.000940
H      1.323624    -0.181373     1.039413      0.000736     0.001320    -0.000494
9
轮次1  Outer Iteration 11, Energy=-117.0672506491, |grad|=0.010536
C     -0.594746    -0.685562     0.015644     -0.000823    -0.004537    -0.002457
C     -0.313765     0.783818    -0.115550     -0.000228     0.002545    -0.001310
C      0.818575    -0.185294     0.077866      0.003123    -0.002946    -0.002254
H     -1.059388    -1.032975     0.931093     -0.002044    -0.000039     0.000627
H     -0.907168    -1.220870    -0.866982      0.001427     0.003462     0.005018
H     -0.589204     1.426815     0.712357     -0.001741     0.000331     0.001127
H     -0.430742     1.239902    -1.091272     -0.000009     0.000282    -0.000809
H      1.472086    -0.375354    -0.764527      0.000906     0.001288    -0.000084
H      1.317436    -0.199032     1.038764     -0.000611    -0.000386     0.000143
9
轮次1  Outer Iteration 12, Energy=-117.0672926634, |grad|=0.002978
C     -0.596126    -0.684934     0.014025      0.000482    -0.000826    -0.001215
C     -0.315390     0.783679    -0.115742     -0.000613     0.000562    -0.001050
C      0.816118    -0.183057     0.080320      0.000561    -0.000617     0.001127
H     -1.058707    -1.034674     0.929297     -0.000771    -0.000041     0.000715
H     -0.903069    -1.226221    -0.872041      0.000007    -0.000099     0.000186
H     -0.581549     1.427421     0.714154      0.000083     0.000504     0.000847
H     -0.432724     1.243659    -1.089048     -0.000116     0.000327    -0.000011
H      1.465910    -0.382899    -0.763025      0.000155    -0.000072    -0.000569
H      1.318622    -0.191524     1.039454      0.000214     0.000262    -0.000029
9
轮次1  Outer Iteration 13, Energy=-117.0672954169, |grad|=0.002976
C     -0.596289    -0.683966     0.014138     -0.000526    -0.000804     0.000214
C     -0.315251     0.784421    -0.115024     -0.000803     0.001761     0.000755
C      0.816134    -0.182691     0.079748      0.001257    -0.000607    -0.000145
H     -1.053649    -1.035653     0.929910      0.000506     0.000296    -0.000397
H     -0.904831    -1.223733    -0.872330      0.000046     0.000072     0.000004
H     -0.583121     1.428181     0.712573      0.000081    -0.000612    -0.000621
H     -0.432606     1.241830    -1.089545     -0.000023     0.000030    -0.000145
H      1.466450    -0.382997    -0.762123     -0.000390    -0.000196     0.000296
H      1.316248    -0.193940     1.040046     -0.000148     0.000059     0.000040
9
轮次1  Outer Iteration 14, Energy=-117.0672968572, |grad|=0.000977
C     -0.596459    -0.684206     0.014451     -0.000138    -0.000204     0.000442
C     -0.315125     0.783761    -0.115280     -0.000265     0.000359    -0.000293
C      0.815974    -0.182653     0.079925      0.000444    -0.000214     0.000185
H     -1.055737    -1.035766     0.929690      0.000014     0.000090    -0.000186
H     -0.904663    -1.224437    -0.872158     -0.000081    -0.000142    -0.000205
H     -0.582334     1.428253     0.712825      0.000034    -0.000043     0.000053
H     -0.432393     1.241848    -1.089382     -0.000014     0.000100     0.000046
H      1.466620    -0.381902    -0.762338     -0.000036     0.000026     0.000011
H      1.317203    -0.193450     1.039660      0.000042     0.000029    -0.000052
9
轮次1  Inner Iteration 1, |pred_grad|=0.001874
C     -0.596459    -0.684206     0.014451     -0.000080    -0.000456    -0.000079
C     -0.315125     0.783761    -0.115280     -0.000507     0.001203    -0.000248
C      0.815974    -0.182653     0.079925      0.000856    -0.000670     0.000272
H     -1.055737    -1.035766     0.929690      0.000008     0.000232    -0.000155
H     -0.904663    -1.224437    -0.872158      0.000015     0.000046     0.000163
H     -0.582334     1.428253     0.712825      0.000011    -0.000345     0.000055
H     -0.432393     1.241848    -1.089382     -0.000031     0.000114    -0.000028
H      1.466620    -0.381902    -0.762338     -0.000057     0.000137     0.000014
H      1.317203    -0.193450     1.039660      0.000010     0.000051    -0.000027
9
轮次1  Inner Iteration 2, |pred_grad|=0.001868
C     -0.596458    -0.684199     0.014452     -0.000080    -0.000450    -0.000079
C     -0.315118     0.783744    -0.115276     -0.000504     0.001200    -0.000251
C      0.815962    -0.182643     0.079921      0.000853    -0.000667     0.000274
H     -1.055737    -1.035770     0.929693      0.000008     0.000230    -0.000155
H     -0.904664    -1.224437    -0.872161      0.000015     0.000045     0.000161
H     -0.582335     1.428258     0.712824      0.000011    -0.000345     0.000055
H     -0.432392     1.241847    -1.089381     -0.000031     0.000114    -0.000027
H      1.466621    -0.381904    -0.762339     -0.000056     0.000137     0.000014
H      1.317202    -0.193450     1.039660      0.000010     0.000051    -0.000028
9
轮次1  Inner Iteration 3, |pred_grad|=0.001861
C     -0.596457    -0.684193     0.014453     -0.000080    -0.000445    -0.000080
C     -0.315111     0.783727    -0.115272     -0.000501     0.001197    -0.000254
C      0.815949    -0.182634     0.079917      0.000850    -0.000664     0.000275
H     -1.055737    -1.035773     0.929695      0.000009     0.000229    -0.000155
H     -0.904664    -1.224438    -0.872163      0.000014     0.000043     0.000160
H     -0.582335     1.428263     0.712823      0.000010    -0.000344     0.000055
H     -0.432392     1.241845    -1.089381     -0.000030     0.000114    -0.000027
H      1.466621    -0.381906    -0.762339     -0.000056     0.000137     0.000014
H      1.317202    -0.193451     1.039661      0.000010     0.000050    -0.000028
9
轮次1  Inner Iteration 4, |pred_grad|=0.001855
C     -0.596456    -0.684186     0.014455     -0.000080    -0.000440    -0.000081
C     -0.315103     0.783710    -0.115269     -0.000498     0.001193    -0.000257
C      0.815937    -0.182624     0.079913      0.000847    -0.000661     0.000277
H     -1.055738    -1.035776     0.929697      0.000009     0.000228    -0.000155
H     -0.904664    -1.224438    -0.872165      0.000014     0.000042     0.000159
H     -0.582335     1.428268     0.712822      0.000010    -0.000344     0.000056
H     -0.432391     1.241843    -1.089381     -0.000030     0.000114    -0.000027
H      1.466622    -0.381908    -0.762339     -0.000056     0.000137     0.000014
H      1.317202    -0.193452     1.039661      0.000011     0.000050    -0.000028
9
轮次1  Inner Iteration 5, |pred_grad|=0.001849
C     -0.596455    -0.684180     0.014456     -0.000079    -0.000435    -0.000081
C     -0.315096     0.783693    -0.115265     -0.000495     0.001190    -0.000260
C      0.815925    -0.182615     0.079909      0.000844    -0.000658     0.000279
H     -1.055738    -1.035780     0.929699      0.000009     0.000226    -0.000154
H     -0.904664    -1.224439    -0.872167      0.000014     0.000041     0.000158
H     -0.582335     1.428273     0.712821      0.000009    -0.000344     0.000056
H     -0.432391     1.241842    -1.089380     -0.000030     0.000114    -0.000026
H      1.466623    -0.381910    -0.762339     -0.000056     0.000136     0.000014
H      1.317202    -0.193452     1.039662      0.000011     0.000049    -0.000028
9
轮次2  Outer Iteration 0, Energy=-117.0672969204, |grad|=0.000716
C     -0.596454    -0.684174     0.014457     -0.000029    -0.000033     0.000451
C     -0.315089     0.783676    -0.115261     -0.000132     0.000046    -0.000249
C      0.815913    -0.182605     0.079905      0.000189    -0.000106     0.000125
H     -1.055738    -1.035783     0.929702     -0.000002     0.000075    -0.000162
H     -0.904664    -1.224440    -0.872170     -0.000093    -0.000168    -0.000241
H     -0.582335     1.428277     0.712821      0.000011     0.000014     0.000100
H     -0.432390     1.241840    -1.089380     -0.000022     0.000138    -0.000008
H      1.466624    -0.381912    -0.762339      0.000001     0.000011    -0.000017
H      1.317202    -0.193453     1.039662      0.000077     0.000023    -0.000000
