9
Iteration 0, Energy=-116.7759337809, |grad|=1.812408
C     -0.031584     0.910596     0.090226     -0.106753     0.321789     0.542170
C     -0.716491    -0.679445     0.170318     -0.232164    -0.166458     0.175306
C      1.044095    -0.333305    -0.091381      0.827107    -0.197383    -1.002545
H     -0.532485     1.390878     0.695105      0.125717    -0.210204    -0.288703
H     -0.221805     1.448946    -1.099723     -0.008632     0.062707    -0.146457
H     -1.133169    -1.003377    -0.800271      0.013068     0.005272    -0.053303
H     -1.003346    -0.797680     1.171442      0.015376     0.045069    -0.036088
H      1.337040    -0.087103     1.066356     -0.033935     0.086635     0.120985
H      1.592331    -0.374481    -0.680489     -0.599786     0.052572     0.688635
9
Iteration 1, Energy=-116.8879572286, |grad|=0.981155
C     -0.037642     0.905203     0.084907     -0.015383     0.227325     0.418203
C     -0.715422    -0.669632     0.170708     -0.227358    -0.159857     0.154126
C      1.023570    -0.333203    -0.066972      0.396362    -0.159522    -0.521736
H     -0.567264     1.422559     0.721983      0.038540    -0.123923    -0.174855
H     -0.217810     1.422994    -1.087650     -0.006850     0.057504    -0.140085
H     -1.125374    -0.998409    -0.793934      0.016980     0.007948    -0.045926
H     -1.013520    -0.788862     1.175561      0.013615     0.043318    -0.024731
H      1.320657    -0.095907     1.070833     -0.036205     0.083810     0.107164
H      1.667391    -0.389715    -0.753854     -0.179702     0.023396     0.227841
9
Iteration 2, Energy=-116.9477150801, |grad|=0.721856
C     -0.041751     0.896577     0.061916      0.055871     0.147342     0.297484
C     -0.688728    -0.647431     0.157034     -0.212701    -0.144685     0.114491
C      0.991271    -0.323335    -0.040286      0.290211    -0.139185    -0.388121
H     -0.588578     1.456634     0.738693     -0.026625    -0.056494    -0.088731
H     -0.218380     1.374578    -1.060062     -0.006382     0.044430    -0.116545
H     -1.096445    -0.983320    -0.792888      0.023227     0.013950    -0.031569
H     -0.998971    -0.783070     1.168118      0.011700     0.039008    -0.006207
H      1.317664    -0.120454     1.050784     -0.035192     0.073968     0.076386
H      1.658504    -0.395151    -0.761728     -0.100110     0.021665     0.142813
9
Iteration 3, Energy=-116.9911389416, |grad|=0.521908
C     -0.051833     0.890429     0.043565      0.070302     0.117469     0.229383
C     -0.658228    -0.621635     0.146836     -0.182295    -0.120037     0.092034
C      0.952228    -0.309555    -0.010263      0.182955    -0.114517    -0.259447
H     -0.587082     1.470179     0.733831     -0.037735    -0.042729    -0.070913
H     -0.224148     1.331315    -1.023921     -0.003948     0.026333    -0.077555
H     -1.068228    -0.969123    -0.792586      0.025448     0.017120    -0.024842
H     -0.979763    -0.776674     1.156077      0.013428     0.035627     0.000619
H      1.307257    -0.140336     1.040588     -0.036696     0.063608     0.045239
H      1.644383    -0.399574    -0.772544     -0.031459     0.017127     0.065482
9
Iteration 4, Energy=-117.0210657496, |grad|=0.360093
C     -0.063946     0.887451     0.021759      0.082396     0.080707     0.145439
C     -0.624716    -0.597538     0.134400     -0.132889    -0.088296     0.069455
C      0.917170    -0.295485     0.018897      0.099965    -0.095263    -0.177270
H     -0.581816     1.493228     0.736688     -0.050749    -0.021459    -0.042570
H     -0.235976     1.299391    -1.005548     -0.002173     0.008581    -0.037359
H     -1.043141    -0.960573    -0.793524      0.023604     0.018544    -0.020692
H     -0.958667    -0.779978     1.138857      0.015241     0.030433     0.005640
H      1.311102    -0.165191     1.041198     -0.031731     0.052028     0.026548
H      1.614576    -0.406279    -0.771145     -0.003665     0.014725     0.030809
9
Iteration 5, Energy=-117.0404262263, |grad|=0.237329
C     -0.079318     0.888155     0.002071      0.078444     0.055614     0.090730
C     -0.598135    -0.577449     0.123276     -0.077113    -0.055888     0.046049
C      0.891944    -0.276304     0.050663      0.032349    -0.078234    -0.111795
H     -0.560491     1.511894     0.737821     -0.048793    -0.013433    -0.028783
H     -0.253476     1.284745    -1.007275     -0.003546    -0.000647    -0.015547
H     -1.029367    -0.959812    -0.790110      0.017451     0.018350    -0.015868
H     -0.948435    -0.796836     1.117891      0.015608     0.022433     0.007870
H      1.328579    -0.190648     1.048673     -0.022368     0.039375     0.014836
H      1.583284    -0.408717    -0.761427      0.007968     0.012429     0.012508
9
Iteration 6, Energy=-117.0527680608, |grad|=0.158043
C     -0.096699     0.889745    -0.015496      0.068586     0.040294     0.054073
C     -0.586134    -0.565251     0.113641     -0.042492    -0.034077     0.026743
C      0.882570    -0.250969     0.079298      0.002468    -0.059859    -0.065218
H     -0.525035     1.529973     0.742946     -0.041189    -0.008667    -0.017953
H     -0.268856     1.281483    -1.018612     -0.005804    -0.004101    -0.008107
H     -1.029868    -0.973503    -0.783458      0.007791     0.015176    -0.010915
H     -0.957056    -0.822670     1.093695      0.013231     0.013225     0.006606
H      1.356934    -0.207955     1.057829     -0.011386     0.027558     0.008576
H      1.558731    -0.405825    -0.748261      0.008795     0.010451     0.006194
9
Iteration 7, Energy=-117.0606307183, |grad|=0.098418
C     -0.118620     0.888454    -0.029527      0.053356     0.026241     0.027375
C     -0.581038    -0.558477     0.106230     -0.021388    -0.018520     0.010878
C      0.877731    -0.223457     0.099421     -0.008385    -0.039028    -0.032109
H     -0.479684     1.545330     0.751202     -0.030114    -0.004856    -0.009587
H     -0.276740     1.286848    -1.025948     -0.005348    -0.006077    -0.002264
H     -1.024145    -0.999671    -0.775594      0.001243     0.010838    -0.005127
H     -0.973800    -0.844588     1.072202      0.009261     0.005799     0.005159
H      1.374221    -0.215867     1.063643     -0.005666     0.017703     0.003139
H      1.536662    -0.403544    -0.740046      0.007041     0.007899     0.002535
9
Iteration 8, Energy=-117.0651937762, |grad|=0.053215
C     -0.146445     0.886863    -0.039563      0.031171     0.014172     0.014600
C     -0.579740    -0.556043     0.102461     -0.010658    -0.009164     0.003117
C      0.875138    -0.198323     0.112268     -0.006559    -0.020989    -0.013770
H     -0.432752     1.559022     0.759493     -0.017040    -0.001464    -0.004242
H     -0.284111     1.303382    -1.032208     -0.004107    -0.003478    -0.003522
H     -1.007015    -1.031834    -0.770619     -0.001825     0.005684    -0.002352
H     -0.991811    -0.858658     1.056105      0.006128     0.001843     0.002772
H      1.385089    -0.222942     1.068773     -0.001471     0.008567     0.002107
H      1.516233    -0.406440    -0.735127      0.004361     0.004829     0.001291
9
Iteration 9, Energy=-117.0670731891, |grad|=0.016645
C     -0.174400     0.881620    -0.045889      0.008467    -0.001148     0.002022
C     -0.577881    -0.555527     0.102334      0.001698     0.001430    -0.001577
C      0.869763    -0.176322     0.116792     -0.008302    -0.003463    -0.003436
H     -0.388784     1.561549     0.770516     -0.004673     0.001659    -0.000236
H     -0.280440     1.321474    -1.025509      0.001247    -0.004319     0.004289
H     -0.972260    -1.068212    -0.765116     -0.000174     0.001034     0.000518
H     -1.021426    -0.858862     1.043017      0.000836     0.000735     0.001534
H      1.388360    -0.215795     1.064804     -0.002427     0.002896    -0.001466
H      1.491654    -0.414897    -0.739366      0.003329     0.001176    -0.001647
9
Iteration 10, Energy=-117.0670577224, |grad|=0.020183
C     -0.183076     0.887914    -0.055285     -0.001152     0.004420     0.002895
C     -0.577558    -0.553644     0.102465     -0.007207    -0.004284    -0.001628
C      0.878225    -0.164111     0.126604      0.010899     0.002968     0.003890
H     -0.365877     1.562911     0.769071      0.002018    -0.001419    -0.002005
H     -0.316524     1.341606    -1.036619     -0.005514     0.004003    -0.007483
H     -0.957722    -1.071807    -0.769448     -0.001170     0.000212    -0.000401
H     -1.026581    -0.866204     1.036396      0.001744    -0.000817    -0.000263
H      1.399988    -0.228923     1.076159      0.002411    -0.004657     0.002867
H      1.483711    -0.432714    -0.727758     -0.002029    -0.000428     0.002127
9
Iteration 11, Energy=-117.0672892227, |grad|=0.002226
C     -0.181854     0.883642    -0.051105      0.001166    -0.000115     0.000803
C     -0.577731    -0.555448     0.103617     -0.000462    -0.000223    -0.000302
C      0.871892    -0.169407     0.121669     -0.000610     0.000238     0.000312
H     -0.374064     1.559940     0.772683     -0.000461     0.000516    -0.000095
H     -0.292253     1.335027    -1.029603     -0.000263    -0.000146    -0.000595
H     -0.960055    -1.074743    -0.766284     -0.000432     0.000152    -0.000018
H     -1.029977    -0.862792     1.038178      0.000584    -0.000239     0.000104
H      1.396215    -0.215383     1.068008     -0.000118    -0.000232     0.000071
H      1.482413    -0.425808    -0.735580      0.000595     0.000047    -0.000278
9
Iteration 12, Energy=-117.0672952015, |grad|=0.001898
C     -0.183008     0.882883    -0.051589     -0.000190    -0.000409     0.000280
C     -0.577277    -0.555798     0.103745      0.000621     0.000157    -0.000888
C      0.871854    -0.169519     0.122185     -0.000741    -0.000018     0.000678
H     -0.371773     1.556145     0.775484      0.000115     0.000350     0.000155
H     -0.293112     1.338365    -1.027522     -0.000141    -0.000224     0.000285
H     -0.953994    -1.078486    -0.766446      0.000026    -0.000111     0.000157
H     -1.037558    -0.858773     1.035950     -0.000345     0.000288    -0.000015
H      1.400563    -0.209958     1.066232      0.000261     0.000211    -0.000217
H      1.478892    -0.429832    -0.736458      0.000394    -0.000243    -0.000435
9
Iteration 13, Energy=-117.0672968494, |grad|=0.000587
C     -0.182857     0.883327    -0.052029      0.000040     0.000110    -0.000141
C     -0.577578    -0.555670     0.104195     -0.000018    -0.000140     0.000155
C      0.871750    -0.169259     0.121752     -0.000287     0.000069     0.000081
H     -0.372715     1.556853     0.774345     -0.000062     0.000083    -0.000012
H     -0.291773     1.338256    -1.028570      0.000076     0.000004     0.000024
H     -0.955622    -1.077469    -0.765984      0.000017     0.000065     0.000034
H     -1.034546    -0.860581     1.037362      0.000021    -0.000082     0.000067
H      1.398328    -0.212239     1.066945     -0.000052    -0.000114     0.000023
H      1.479600    -0.428191    -0.736434      0.000265     0.000005    -0.000231
9
Iteration 14, Energy=-117.0672970676, |grad|=0.000475
C     -0.182856     0.883257    -0.052093      0.000010    -0.000076    -0.000069
C     -0.577601    -0.555513     0.104008     -0.000012     0.000103    -0.000070
C      0.871800    -0.169194     0.121962     -0.000167     0.000111     0.000302
H     -0.372380     1.556193     0.774839     -0.000005     0.000008     0.000059
H     -0.292063     1.338648    -1.028406      0.000030    -0.000001    -0.000009
H     -0.955144    -1.077673    -0.766249     -0.000038    -0.000007    -0.000015
H     -1.034970    -0.860378     1.036932      0.000083    -0.000064    -0.000002
H      1.398904    -0.211011     1.066883      0.000022     0.000041    -0.000029
H      1.478897    -0.429302    -0.736294      0.000077    -0.000115    -0.000168
