14
Iteration 0, Energy=-156.9719208364, |grad|=1.140868
C     -1.611191     0.525590     0.082095      0.217835     0.413565     0.167081
C     -0.508036    -0.678075    -0.819840     -0.019575    -0.463419    -0.144614
C      0.550269    -0.519320     0.159815     -0.250108     0.269951     0.306443
C      1.519909     0.426031     0.553073     -0.056612    -0.340555     0.154803
H     -0.949130     0.758950     0.711728     -0.146256    -0.133872    -0.204629
H     -2.537772    -0.313555     0.457839     -0.116152    -0.109767     0.009495
H     -2.095003     0.958355    -0.680449      0.047890    -0.126864     0.081763
H     -0.511953    -0.301315    -1.774464     -0.047664    -0.045876     0.088347
H     -1.004698    -1.448173    -0.836198      0.172064     0.339702    -0.021026
H      0.420612    -1.016991     0.946552      0.099778     0.182811    -0.249885
H      1.435987    -1.557012    -0.498001      0.063263    -0.080437    -0.070125
H      2.664656     0.555513     0.784499      0.096081     0.080159     0.002256
H      0.919747     1.058037     1.262048     -0.051333    -0.012722     0.008735
H      1.545860     1.082728    -0.571581     -0.009211     0.027324    -0.128643
14
Iteration 1, Energy=-157.0516182384, |grad|=0.866583
C     -1.631987     0.507708     0.061014      0.115897     0.334271     0.105759
C     -0.505048    -0.673143    -0.814130      0.089069    -0.319030    -0.119150
C      0.564132    -0.532101     0.155169     -0.254403     0.295779     0.198532
C      1.543936     0.437536     0.549887     -0.014259    -0.303346     0.159160
H     -0.978172     0.805189     0.766640     -0.034784    -0.090686    -0.093704
H     -2.535822    -0.297541     0.432614     -0.105710    -0.097402     0.006977
H     -2.138806     0.967246    -0.715252      0.016670    -0.095470     0.034907
H     -0.509038    -0.281591    -1.780657     -0.046309    -0.029780     0.061268
H     -1.025698    -1.504196    -0.832281      0.070453     0.179584    -0.016262
H      0.434651    -1.060205     0.976173      0.076697     0.116314    -0.150060
H      1.438057    -1.551305    -0.507403      0.065209    -0.083580    -0.071731
H      2.670482     0.555140     0.763333      0.076455     0.079180    -0.003010
H      0.959294     1.065882     1.266464     -0.045398    -0.011755     0.006819
H      1.553276     1.092142    -0.544453     -0.009587     0.025921    -0.119505
14
Iteration 2, Energy=-157.1078732597, |grad|=0.745877
C     -1.655214     0.480351     0.035825      0.076102     0.279237     0.096965
C     -0.511115    -0.665792    -0.801224      0.125526    -0.266714    -0.106150
C      0.584682    -0.550419     0.154454     -0.254315     0.294060     0.138351
C      1.575854     0.450346     0.546034      0.031764    -0.259028     0.157760
H     -1.054827     0.842871     0.790087     -0.012095    -0.073204    -0.058929
H     -2.524131    -0.277080     0.402229     -0.084095    -0.074294     0.001322
H     -2.177718     0.965038    -0.743694     -0.000541    -0.074486     0.012486
H     -0.515908    -0.259846    -1.777060     -0.046138    -0.015698     0.041123
H     -1.039072    -1.531323    -0.818858      0.030925     0.116465    -0.011271
H      0.457177    -1.103762     1.001469      0.060996     0.072197    -0.088581
H      1.435345    -1.544495    -0.515327      0.067712    -0.087772    -0.074290
H      2.683188     0.546194     0.733997      0.051230     0.076787    -0.009962
H      1.015043     1.077643     1.272532     -0.037456    -0.009346     0.003440
H      1.565952     1.101038    -0.503348     -0.009615     0.021797    -0.102265
14
Iteration 3, Energy=-157.1513531207, |grad|=0.650378
C     -1.664128     0.450640     0.011629      0.032455     0.216550     0.076072
C     -0.523404    -0.655263    -0.787531      0.144420    -0.223257    -0.099027
C      0.600889    -0.568896     0.153843     -0.249841     0.284351     0.108062
C      1.593792     0.464592     0.540778      0.062019    -0.218822     0.145593
H     -1.102361     0.867314     0.803910      0.008250    -0.052382    -0.023037
H     -2.499594    -0.263538     0.373600     -0.055063    -0.047476    -0.007864
H     -2.192853     0.960506    -0.767043     -0.009889    -0.059765     0.000548
H     -0.526520    -0.238046    -1.769526     -0.046734    -0.004325     0.028820
H     -1.056279    -1.551380    -0.804510      0.002951     0.070371    -0.006004
H      0.474241    -1.139463     1.019465      0.051133     0.044505    -0.052547
H      1.424305    -1.535344    -0.517936      0.068875    -0.091498    -0.076386
H      2.689186     0.537073     0.706491      0.032245     0.073448    -0.015562
H      1.053590     1.092656     1.275381     -0.031928    -0.005597    -0.000099
H      1.568392     1.109913    -0.461436     -0.008891     0.013896    -0.078570
14
Iteration 4, Energy=-157.1855977422, |grad|=0.575113
C     -1.668487     0.422455    -0.011215      0.009884     0.164293     0.064894
C     -0.536990    -0.642177    -0.771608      0.145782    -0.190442    -0.093314
C      0.619831    -0.589976     0.152341     -0.237862     0.267331     0.089312
C      1.608569     0.477672     0.534859      0.079655    -0.179662     0.126808
H     -1.155176     0.886883     0.804056      0.010871    -0.039857    -0.007674
H     -2.485493    -0.257829     0.352102     -0.030374    -0.025176    -0.014323
H     -2.198291     0.957189    -0.786704     -0.015137    -0.046498    -0.006095
H     -0.535248    -0.215784    -1.758420     -0.047295     0.005413     0.020315
H     -1.070307    -1.561529    -0.787978     -0.013466     0.042199    -0.000610
H      0.492638    -1.173851     1.033450      0.043490     0.023800    -0.027405
H      1.411583    -1.524953    -0.517088      0.068924    -0.094208    -0.077078
H      2.698203     0.524357     0.680526      0.020588     0.069036    -0.019274
H      1.088405     1.108098     1.277409     -0.027493    -0.000629    -0.003373
H      1.570020     1.120208    -0.424613     -0.007567     0.004400    -0.052182
14
Iteration 5, Energy=-157.2135342711, |grad|=0.505256
C     -1.664666     0.397457    -0.030300      0.001370     0.120753     0.047355
C     -0.550811    -0.629043    -0.757002      0.134067    -0.160572    -0.086528
C      0.638100    -0.613624     0.148201     -0.220000     0.243031     0.077419
C      1.613836     0.490002     0.528616      0.086401    -0.143870     0.107924
H     -1.190697     0.900812     0.799416      0.011248    -0.028662     0.003340
H     -2.476212    -0.257954     0.339862     -0.015633    -0.012523    -0.016414
H     -2.190180     0.957351    -0.799423     -0.016669    -0.035822    -0.008671
H     -0.539042    -0.197135    -1.748150     -0.047082     0.013161     0.014480
H     -1.081346    -1.566046    -0.773359     -0.022679     0.024720     0.004579
H      0.507049    -1.204233     1.041399      0.037755     0.010121    -0.012209
H      1.397048    -1.514056    -0.510981      0.066830    -0.094623    -0.075083
H      2.700825     0.511180     0.660017      0.014460     0.063407    -0.021487
H      1.109275     1.123639     1.276578     -0.024126     0.004839    -0.006204
H      1.566078     1.132414    -0.397759     -0.005944    -0.003961    -0.028502
14
Iteration 6, Energy=-157.2368669850, |grad|=0.435417
C     -1.657155     0.377835    -0.043478      0.003860     0.086536     0.030627
C     -0.561968    -0.617750    -0.744551      0.114256    -0.131568    -0.078260
C      0.657245    -0.640262     0.140673     -0.195305     0.211727     0.065538
C      1.610837     0.500374     0.521937      0.085173    -0.114273     0.094345
H     -1.215053     0.910927     0.792327      0.008202    -0.021027     0.007805
H     -2.470931    -0.256359     0.336876     -0.008477    -0.005823    -0.015177
H     -2.175164     0.962631    -0.803975     -0.016341    -0.026960    -0.008701
H     -0.534745    -0.184102    -1.739862     -0.045234     0.018617     0.010073
H     -1.086866    -1.568374    -0.761972     -0.026715     0.013776     0.009157
H      0.518957    -1.231991     1.043825      0.032999     0.001275    -0.003191
H      1.384107    -1.503570    -0.500652      0.061666    -0.091178    -0.068959
H      2.696775     0.498439     0.645838      0.012100     0.056704    -0.022532
H      1.116199     1.136925     1.272784     -0.021473     0.010276    -0.008383
H      1.557017     1.146041    -0.382655     -0.004710    -0.008084    -0.012343
14
Iteration 7, Energy=-157.2563146056, |grad|=0.361348
C     -1.647388     0.364498    -0.049660      0.007955     0.059429     0.016524
C     -0.569518    -0.609399    -0.735142      0.090951    -0.104469    -0.069146
C      0.676570    -0.669258     0.129526     -0.163585     0.173254     0.049363
C      1.598832     0.509006     0.513927      0.078677    -0.090115     0.086322
H     -1.225165     0.918880     0.787044      0.004965    -0.015069     0.009595
H     -2.465097    -0.251440     0.341762     -0.004785    -0.001991    -0.012753
H     -2.155081     0.973825    -0.800223     -0.014802    -0.019679    -0.007389
H     -0.521368    -0.178061    -1.734604     -0.041263     0.021602     0.006353
H     -1.086622    -1.570329    -0.754944     -0.026662     0.007135     0.012849
H      0.527218    -1.256721     1.041290      0.028646    -0.003927     0.001661
H      1.373641    -1.494180    -0.486789      0.051996    -0.082031    -0.057297
H      2.683765     0.487543     0.638004      0.011215     0.049240    -0.022962
H      1.107344     1.147259     1.264469     -0.019241     0.015067    -0.010287
H      1.542125     1.159140    -0.377544     -0.004067    -0.008445    -0.002833
14
Iteration 8, Energy=-157.2719041773, |grad|=0.281653
C     -1.636355     0.356886    -0.049292      0.009975     0.039335     0.006971
C     -0.573061    -0.603308    -0.727940      0.068336    -0.079534    -0.059676
C      0.695783    -0.698934     0.115660     -0.124357     0.128032     0.026625
C      1.578747     0.515976     0.503630      0.068080    -0.070022     0.081783
H     -1.223036     0.925590     0.784541      0.002126    -0.010552     0.009388
H     -2.458066    -0.243281     0.353475     -0.003091     0.000152    -0.009732
H     -2.131133     0.990187    -0.789648     -0.012463    -0.013531    -0.005570
H     -0.498820    -0.178083    -1.731283     -0.035145     0.022200     0.003119
H     -1.080975    -1.572375    -0.751923     -0.023838     0.002826     0.015617
H      0.531683    -1.277859     1.035026      0.024161    -0.006539     0.003914
H      1.366491    -1.485967    -0.471151      0.036633    -0.065638    -0.039397
H      2.662187     0.478262     0.635571      0.010880     0.041224    -0.022981
H      1.083783     1.153434     1.251037     -0.017273     0.018581    -0.012284
H      1.522028     1.170234    -0.380586     -0.004025    -0.006533     0.002222
14
Iteration 9, Energy=-157.2833312908, |grad|=0.202093
C     -1.623531     0.353150    -0.043176      0.008798     0.023689     0.001631
C     -0.573429    -0.597779    -0.721354      0.047658    -0.056078    -0.048979
C      0.712885    -0.725959     0.101158     -0.080031     0.080142    -0.000748
C      1.551254     0.521622     0.489825      0.054530    -0.053333     0.078334
H     -1.209291     0.931109     0.785309      0.000535    -0.006669     0.008373
H     -2.447512    -0.234179     0.370464     -0.001802     0.001254    -0.006850
H     -2.102756     1.009978    -0.773703     -0.009306    -0.008177    -0.003952
H     -0.467398    -0.182646    -1.727982     -0.027079     0.020472     0.000494
H     -1.070685    -1.573741    -0.752539     -0.019213    -0.000090     0.017410
H      0.530515    -1.293357     1.026727      0.019041    -0.007221     0.004328
H      1.363182    -1.478842    -0.456142      0.016733    -0.042965    -0.017155
H      2.631793     0.469090     0.637800      0.010234     0.032771    -0.022590
H      1.046716     1.153842     1.232193     -0.015554     0.019818    -0.014594
H      1.497513     1.178474    -0.391464     -0.004544    -0.003615     0.004297
14
Iteration 10, Energy=-157.2907840282, |grad|=0.142269
C     -1.613344     0.351642    -0.033166      0.005261     0.012308    -0.000183
C     -0.571466    -0.591035    -0.713146      0.031027    -0.035094    -0.036816
C      0.725578    -0.744604     0.090359     -0.041590     0.042944    -0.022053
C      1.522213     0.526131     0.471611      0.040194    -0.040800     0.072534
H     -1.193272     0.936366     0.788082     -0.000104    -0.003548     0.006457
H     -2.438078    -0.226620     0.390287     -0.001277     0.001465    -0.003998
H     -2.075937     1.029429    -0.755194     -0.005550    -0.003695    -0.002401
H     -0.428529    -0.189859    -1.721723     -0.017725     0.016254    -0.001086
H     -1.055188    -1.573472    -0.756970     -0.013559    -0.001803     0.017730
H      0.523601    -1.300211     1.019075      0.013095    -0.006440     0.002788
H      1.366436    -1.473091    -0.446475      0.000944    -0.022849     0.000909
H      2.597570     0.456110     0.643956      0.009054     0.024217    -0.021347
H      1.005003     1.146644     1.210541     -0.014252     0.017703    -0.016514
H      1.474670     1.183333    -0.410122     -0.005519    -0.000662     0.003979
14
Iteration 11, Energy=-157.2954617746, |grad|=0.105660
C     -1.611153     0.350578    -0.023972      0.002067     0.005545    -0.000354
C     -0.570920    -0.582441    -0.702797      0.018001    -0.019174    -0.025079
C      0.731843    -0.751040     0.087711     -0.020517     0.026942    -0.026337
C      1.503231     0.530638     0.451738      0.029566    -0.032139     0.061641
H     -1.187263     0.941816     0.790277     -0.000126    -0.001635     0.004174
H     -2.433001    -0.227449     0.404944     -0.000883     0.000565    -0.002279
H     -2.062080     1.040374    -0.741519     -0.002140    -0.000809    -0.001222
H     -0.394424    -0.195859    -1.711437     -0.010017     0.010637    -0.001084
H     -1.039826    -1.570008    -0.765253     -0.008428    -0.001902     0.016110
H      0.514766    -1.297239     1.016799      0.007447    -0.005111     0.000023
H      1.372823    -1.467393    -0.444959     -0.002694    -0.014368     0.006792
H      2.570892     0.436749     0.653009      0.007309     0.016819    -0.018644
H      0.979194     1.136174     1.194742     -0.013208     0.013273    -0.015988
H      1.465176     1.185863    -0.432169     -0.006377     0.001357     0.002244
14
Iteration 12, Energy=-157.2985590756, |grad|=0.075998
C     -1.614812     0.348077    -0.018083      0.001270     0.002432    -0.000247
C     -0.572962    -0.575489    -0.694614      0.007726    -0.009002    -0.017089
C      0.734363    -0.751337     0.090403     -0.008413     0.018807    -0.021288
C      1.495454     0.536249     0.433943      0.022347    -0.023588     0.046553
H     -1.189273     0.945732     0.789469     -0.000407    -0.001376     0.002238
H     -2.433302    -0.230694     0.416335     -0.001139     0.000483    -0.001503
H     -2.064022     1.039618    -0.734003     -0.000281     0.000005    -0.000100
H     -0.372872    -0.199406    -1.702255     -0.005528     0.005304    -0.000743
H     -1.028668    -1.566002    -0.779757     -0.004577    -0.000807     0.012957
H      0.509221    -1.288686     1.020959      0.003309    -0.003857    -0.001762
H      1.376092    -1.459196    -0.447641     -0.002137    -0.010431     0.006785
H      2.553951     0.414787     0.665715      0.005740     0.011199    -0.014456
H      0.974861     1.129461     1.188187     -0.011439     0.009073    -0.012630
H      1.471226     1.187649    -0.451541     -0.006472     0.001757     0.001286
14
Iteration 13, Energy=-157.3006567057, |grad|=0.049940
C     -1.619274     0.345953    -0.013885      0.001323     0.002302     0.000240
C     -0.575527    -0.570323    -0.688769      0.001445    -0.003730    -0.010463
C      0.732808    -0.749975     0.095196     -0.002445     0.012589    -0.013708
C      1.491282     0.541779     0.418475      0.015934    -0.014801     0.030963
H     -1.192149     0.952210     0.785739     -0.000422    -0.001304     0.001248
H     -2.427898    -0.240724     0.428096     -0.000556    -0.000634    -0.001667
H     -2.075305     1.032210    -0.730542      0.000703     0.000835     0.000020
H     -0.359751    -0.197615    -1.694439     -0.003512     0.001565    -0.000883
H     -1.021457    -1.562235    -0.798379     -0.001958    -0.000360     0.009429
H      0.504781    -1.277919     1.029035      0.000644    -0.002646    -0.002463
H      1.374933    -1.450286    -0.451306     -0.000996    -0.007664     0.004648
H      2.539080     0.392185     0.681573      0.004043     0.006983    -0.009720
H      0.980871     1.127435     1.185089     -0.008491     0.005221    -0.008431
H      1.486861     1.188068    -0.468767     -0.005711     0.001645     0.000787
14
Iteration 14, Energy=-157.3020163552, |grad|=0.028746
C     -1.629381     0.339605    -0.011267      0.000037     0.001117    -0.000006
C     -0.576599    -0.566226    -0.684399      0.001450    -0.000619    -0.006459
C      0.731274    -0.748086     0.099577      0.000988     0.007202    -0.007338
C      1.491558     0.545204     0.406880      0.009518    -0.007918     0.017080
H     -1.199050     0.962198     0.773085     -0.000656    -0.002411     0.000471
H     -2.431594    -0.241534     0.450840     -0.002634     0.001517    -0.000538
H     -2.098449     1.010705    -0.732680      0.001221     0.000198     0.000856
H     -0.348129    -0.188135    -1.685423     -0.002005    -0.001149    -0.001193
H     -1.014519    -1.557752    -0.821057     -0.000592     0.000669     0.006527
H      0.505388    -1.268809     1.036887     -0.000855    -0.001412    -0.002528
H      1.373746    -1.439687    -0.457157      0.000049    -0.005058     0.002365
H      2.528291     0.367843     0.699068      0.002914     0.003771    -0.005230
H      0.994649     1.128351     1.184547     -0.005111     0.002307    -0.004132
H      1.512072     1.187085    -0.481786     -0.004324     0.001785     0.000125
14
Iteration 1, Energy=-157.3030521880, |grad|=0.013583
C     -1.655084     0.325909    -0.004849      0.000042     0.003285     0.000123
C     -0.579410    -0.550142    -0.676091      0.000755     0.001059    -0.001001
C      0.715903    -0.736201     0.121470      0.003041    -0.000674     0.004859
C      1.499585     0.550008     0.378810     -0.002757     0.001387    -0.004613
H     -1.247749     0.961572     0.783226     -0.001640    -0.000859     0.001299
H     -2.430790    -0.293570     0.450371      0.000160    -0.001105    -0.002430
H     -2.145539     0.984302    -0.725322      0.001083     0.002026     0.000207
H     -0.324844    -0.142141    -1.658578     -0.001419    -0.002962    -0.000562
H     -0.997949    -1.541788    -0.870576      0.001253    -0.000975     0.002357
H      0.497018    -1.240543     1.070975     -0.001682    -0.002840     0.000716
H      1.361645    -1.415258    -0.442596      0.001462     0.003103     0.000087
H      2.507608     0.300389     0.712659     -0.003435    -0.002676    -0.001323
H      1.049608     1.163244     1.160965      0.002389    -0.002292     0.001199
H      1.589255     1.164982    -0.523347      0.000748     0.003524    -0.000918
14
Iteration 2, Energy=-157.3038051057, |grad|=0.007919
C     -1.651916     0.314282     0.004950      0.000028     0.000191     0.000739
C     -0.579574    -0.542203    -0.692001      0.000676    -0.001641    -0.002145
C      0.709596    -0.734115     0.113202     -0.000139     0.002582    -0.001240
C      1.503154     0.545545     0.381629     -0.001585     0.000884    -0.000285
H     -1.223299     0.965814     0.768953      0.000330    -0.001317     0.001911
H     -2.401467    -0.309272     0.497425     -0.001112     0.000325    -0.001818
H     -2.178167     0.954768    -0.705915      0.001748     0.001569     0.000132
H     -0.322237    -0.107879    -1.663180     -0.000761    -0.002792    -0.001197
H     -0.999487    -1.528052    -0.912617     -0.000567    -0.000733     0.001559
H      0.476443    -1.219480     1.067415     -0.000175     0.001110    -0.000044
H      1.350523    -1.430868    -0.435500      0.000107     0.000928    -0.000397
H      2.498304     0.307714     0.766068      0.000498     0.000492     0.000102
H      1.024566     1.189227     1.122650      0.001958    -0.000539     0.002164
H      1.632819     1.125281    -0.535965     -0.001004    -0.001059     0.000520
14
Iteration 3, Energy=-157.3046126381, |grad|=0.009704
C     -1.661981     0.307584     0.011529     -0.001774     0.000062    -0.001904
C     -0.573783    -0.517885    -0.695071      0.002130     0.002197     0.001455
C      0.709739    -0.737586     0.112354     -0.000179    -0.001190    -0.003509
C      1.517005     0.534557     0.380026     -0.000560     0.000926     0.000464
H     -1.238780     0.997425     0.743577      0.000412    -0.002459     0.001341
H     -2.368382    -0.333332     0.544706     -0.002050     0.000778    -0.001725
H     -2.238985     0.904139    -0.697904      0.001072     0.001835     0.000969
H     -0.314967    -0.051065    -1.651435     -0.001567    -0.001504    -0.001847
H     -0.986796    -1.499213    -0.944751      0.000575    -0.000529     0.003432
H      0.460172    -1.217279     1.064746     -0.000293     0.000672    -0.001299
H      1.342721    -1.450621    -0.425883      0.001163    -0.001002     0.000932
H      2.496457     0.300708     0.807680      0.002683     0.000911    -0.000369
H      1.009851     1.207197     1.075414     -0.000180     0.000265     0.000736
H      1.686986     1.086136    -0.547871     -0.001433    -0.000964     0.001324
14
Iteration 4, Energy=-157.3054475049, |grad|=0.008096
C     -1.662719     0.301422     0.018598      0.000468     0.000673    -0.000432
C     -0.572389    -0.501468    -0.705239      0.001075     0.000697    -0.000847
C      0.703184    -0.733968     0.110967     -0.000647     0.001265    -0.001281
C      1.525033     0.527393     0.381380      0.001280     0.000074     0.001633
H     -1.245065     1.037270     0.707989     -0.000346    -0.001962     0.001916
H     -2.315499    -0.353290     0.601657     -0.001840     0.000059    -0.001827
H     -2.293321     0.843230    -0.689142      0.001794     0.001734     0.000486
H     -0.311824    -0.008385    -1.647948     -0.002125    -0.001157    -0.001899
H     -0.981172    -1.477971    -0.980222      0.000947    -0.000968     0.003223
H      0.439398    -1.211930     1.061123     -0.000639    -0.000396    -0.000970
H      1.330303    -1.456120    -0.421543      0.000298    -0.000883     0.000888
H      2.482525     0.282477     0.848836      0.002033     0.000296    -0.000963
H      1.001305     1.222890     1.040686     -0.001267     0.000067    -0.000512
H      1.739498     1.059214    -0.550026     -0.001032     0.000501     0.000585
14
Iteration 5, Energy=-157.3062668880, |grad|=0.008180
C     -1.669417     0.296509     0.020503      0.000510     0.000496    -0.000149
C     -0.573587    -0.486234    -0.711703      0.000062     0.000216    -0.000978
C      0.698398    -0.728435     0.108260      0.001771     0.003264    -0.001311
C      1.533490     0.520303     0.385606      0.001176    -0.001165     0.002786
H     -1.260875     1.083053     0.657839     -0.000321    -0.001657     0.001955
H     -2.262600    -0.364535     0.658001     -0.001424    -0.000754    -0.001839
H     -2.353323     0.773615    -0.685090      0.001547     0.002118    -0.000133
H     -0.308650     0.026105    -1.642341     -0.001879    -0.001697    -0.001052
H     -0.980040    -1.457374    -1.009591      0.000348    -0.000910     0.002456
H      0.428177    -1.205645     1.057945     -0.000738    -0.000265     0.000267
H      1.321592    -1.452986    -0.424983      0.000134    -0.000123     0.000511
H      2.469041     0.255224     0.881752     -0.000698    -0.000353    -0.001234
H      1.011175     1.233256     1.026438     -0.000016    -0.000206    -0.000482
H      1.785876     1.037907    -0.545519     -0.000472     0.001036    -0.000797
14
Iteration 6, Energy=-157.3069964536, |grad|=0.006140
C     -1.663455     0.297438     0.023627      0.000865     0.000237     0.000424
C     -0.570711    -0.475321    -0.719835      0.000697     0.001223    -0.001451
C      0.693814    -0.735124     0.105039      0.000203     0.001019     0.000668
C      1.528309     0.512376     0.390406     -0.000608    -0.000108    -0.000509
H     -1.258445     1.130897     0.601318      0.000244    -0.001122     0.002108
H     -2.199706    -0.353465     0.719461     -0.001430    -0.000408    -0.001515
H     -2.396813     0.710247    -0.672756      0.001410     0.001726    -0.000158
H     -0.300354     0.056171    -1.638742     -0.001776    -0.001068    -0.001448
H     -0.977424    -1.439717    -1.038911      0.001312    -0.001112     0.002004
H      0.417332    -1.217176     1.050165     -0.000324    -0.000529     0.000225
H      1.316817    -1.458317    -0.430321     -0.000059    -0.000249     0.000345
H      2.452189     0.250128     0.911231      0.000093    -0.000290    -0.000584
H      0.993160     1.231342     1.014352     -0.000529    -0.000019    -0.000053
H      1.804543     1.021285    -0.537918     -0.000097     0.000698    -0.000057
14
Iteration 7, Energy=-157.3075906296, |grad|=0.006699
C     -1.674599     0.296589     0.019839      0.000229     0.000522    -0.000759
C     -0.574123    -0.462300    -0.722550     -0.000852    -0.001569     0.000333
C      0.691786    -0.729002     0.099662     -0.000511     0.003590    -0.000538
C      1.544679     0.502973     0.402521      0.002638    -0.001055     0.000954
H     -1.294513     1.184261     0.529244     -0.000463    -0.001244     0.001323
H     -2.146049    -0.339900     0.773830     -0.000930    -0.000790    -0.001333
H     -2.455484     0.626099    -0.669350      0.000988     0.001479    -0.000136
H     -0.303912     0.082039    -1.634134     -0.001333    -0.000636    -0.000675
H     -0.979889    -1.423070    -1.054269     -0.000066    -0.000654     0.001356
H      0.411046    -1.219609     1.038569     -0.000567    -0.000127    -0.000560
H      1.309324    -1.451562    -0.442686      0.000067     0.000233     0.000395
H      2.458396     0.225669     0.934395      0.001175     0.000586    -0.000059
H      1.011917     1.227414     1.021857     -0.000248    -0.000590    -0.000507
H      1.840677     1.011161    -0.519811     -0.000128     0.000257     0.000205
14
Iteration 8, Energy=-157.3080380749, |grad|=0.005971
C     -1.661557     0.303582     0.020182      0.000844    -0.000547     0.000258
C     -0.571233    -0.457722    -0.730656     -0.000486     0.001727    -0.000232
C      0.690600    -0.738767     0.091933      0.003094    -0.000104     0.000166
C      1.527157     0.497790     0.412132     -0.001943     0.000637     0.000208
H     -1.288851     1.234395     0.453578      0.000575    -0.000218     0.000989
H     -2.069469    -0.302967     0.833940     -0.000395    -0.001020    -0.000654
H     -2.486339     0.561357    -0.648992      0.000494     0.000952    -0.000980
H     -0.294930     0.093487    -1.636089     -0.000843    -0.000651    -0.000226
H     -0.984721    -1.411715    -1.072883      0.000191    -0.000472     0.000665
H      0.410414    -1.237800     1.027017      0.000141     0.000540     0.000881
H      1.312671    -1.451468    -0.458263     -0.000451    -0.000394    -0.000182
H      2.430580     0.211379     0.953567     -0.002218    -0.001274    -0.000527
H      0.990173     1.216393     1.034889      0.000946     0.000501     0.000474
H      1.834762     1.012818    -0.503240      0.000054     0.000322    -0.000842
14
Iteration 9, Energy=-157.3082994127, |grad|=0.003762
C     -1.658049     0.311503     0.017350      0.000543    -0.000407     0.000053
C     -0.571379    -0.452854    -0.737011     -0.000522    -0.000061    -0.000296
C      0.688891    -0.743703     0.083995     -0.001682     0.001338     0.000629
C      1.527171     0.486899     0.426524      0.001560    -0.001127    -0.000723
H     -1.306964     1.283641     0.370253     -0.000038    -0.000168     0.000536
H     -2.002283    -0.252737     0.888905     -0.000411     0.000047    -0.000197
H     -2.524660     0.490939    -0.623395      0.000122     0.000397     0.000064
H     -0.293226     0.103031    -1.639552     -0.000209    -0.000093    -0.000228
H     -0.986658    -1.403999    -1.084654      0.000460    -0.000306    -0.000137
H      0.405898    -1.262690     1.007186     -0.000235    -0.000419     0.000296
H      1.315636    -1.444497    -0.475903      0.000343     0.000629     0.000446
H      2.429529     0.206353     0.974957      0.000305     0.000610    -0.000043
H      0.974043     1.194537     1.047523     -0.000609    -0.000793    -0.000435
H      1.841308     1.014342    -0.479062      0.000373     0.000353     0.000035
14
Iteration 1, Energy=-157.3083520793, |grad|=0.006212
C     -1.647993     0.324035     0.011709     -0.000777    -0.000240    -0.000603
C     -0.570686    -0.457594    -0.738353      0.000531     0.001110     0.001027
C      0.694960    -0.751756     0.073052      0.003186    -0.001929    -0.001897
C      1.512482     0.485265     0.442311     -0.002486     0.001353     0.001122
H     -1.302168     1.316661     0.308227      0.000300    -0.000060    -0.000016
H     -1.956907    -0.205754     0.917521      0.000164    -0.000261    -0.000217
H     -2.534813     0.459886    -0.612014     -0.000165     0.000240    -0.000037
H     -0.296170     0.086291    -1.649161     -0.000285     0.000110     0.000194
H     -0.998062    -1.408533    -1.071105     -0.000068     0.000236     0.000360
H      0.419063    -1.287070     0.988359      0.000345     0.000857     0.000040
H      1.324371    -1.439114    -0.501274     -0.000566    -0.001455    -0.000250
H      2.420764     0.198814     0.977591     -0.000588    -0.000709    -0.000031