14
轮次1  Outer Iteration 0, Energy=-156.9719208364, |grad|=1.140868
C     -1.611191     0.525590     0.082095      0.217835     0.413565     0.167081
C     -0.508036    -0.678075    -0.819840     -0.019575    -0.463419    -0.144614
C      0.550269    -0.519320     0.159815     -0.250108     0.269951     0.306443
C      1.519909     0.426031     0.553073     -0.056612    -0.340555     0.154803
H     -0.949130     0.758950     0.711728     -0.146256    -0.133872    -0.204629
H     -2.537772    -0.313555     0.457839     -0.116152    -0.109767     0.009495
H     -2.095003     0.958355    -0.680449      0.047890    -0.126864     0.081763
H     -0.511953    -0.301315    -1.774464     -0.047664    -0.045876     0.088347
H     -1.004698    -1.448173    -0.836198      0.172064     0.339702    -0.021026
H      0.420612    -1.016991     0.946552      0.099778     0.182811    -0.249885
H      1.435987    -1.557012    -0.498001      0.063263    -0.080437    -0.070125
H      2.664656     0.555513     0.784499      0.096081     0.080159     0.002256
H      0.919747     1.058037     1.262048     -0.051333    -0.012722     0.008735
H      1.545860     1.082728    -0.571581     -0.009211     0.027324    -0.128643
14
轮次1  Outer Iteration 1, Energy=-157.0516182384, |grad|=0.866583
C     -1.631987     0.507708     0.061014      0.115897     0.334271     0.105759
C     -0.505048    -0.673143    -0.814130      0.089069    -0.319030    -0.119150
C      0.564132    -0.532101     0.155169     -0.254403     0.295779     0.198532
C      1.543936     0.437536     0.549887     -0.014259    -0.303346     0.159160
H     -0.978172     0.805189     0.766640     -0.034784    -0.090686    -0.093704
H     -2.535822    -0.297541     0.432614     -0.105710    -0.097402     0.006977
H     -2.138806     0.967246    -0.715252      0.016670    -0.095470     0.034907
H     -0.509038    -0.281591    -1.780657     -0.046309    -0.029780     0.061268
H     -1.025698    -1.504196    -0.832281      0.070453     0.179584    -0.016262
H      0.434651    -1.060205     0.976173      0.076697     0.116314    -0.150060
H      1.438057    -1.551305    -0.507403      0.065209    -0.083580    -0.071731
H      2.670482     0.555140     0.763333      0.076455     0.079180    -0.003010
H      0.959294     1.065882     1.266464     -0.045398    -0.011755     0.006819
H      1.553276     1.092142    -0.544453     -0.009587     0.025921    -0.119505
14
轮次1  Outer Iteration 2, Energy=-157.1078732597, |grad|=0.745877
C     -1.655214     0.480351     0.035825      0.076102     0.279237     0.096965
C     -0.511115    -0.665792    -0.801224      0.125526    -0.266714    -0.106150
C      0.584682    -0.550419     0.154454     -0.254315     0.294060     0.138351
C      1.575854     0.450346     0.546034      0.031764    -0.259028     0.157760
H     -1.054827     0.842871     0.790087     -0.012095    -0.073204    -0.058929
H     -2.524131    -0.277080     0.402229     -0.084095    -0.074294     0.001322
H     -2.177718     0.965038    -0.743694     -0.000541    -0.074486     0.012486
H     -0.515908    -0.259846    -1.777060     -0.046138    -0.015698     0.041123
H     -1.039072    -1.531323    -0.818858      0.030925     0.116465    -0.011271
H      0.457177    -1.103762     1.001469      0.060996     0.072197    -0.088581
H      1.435345    -1.544495    -0.515327      0.067712    -0.087772    -0.074290
H      2.683188     0.546194     0.733997      0.051230     0.076787    -0.009962
H      1.015043     1.077643     1.272532     -0.037456    -0.009346     0.003440
H      1.565952     1.101038    -0.503348     -0.009615     0.021797    -0.102265
14
轮次1  Outer Iteration 3, Energy=-157.1513531207, |grad|=0.650378
C     -1.664128     0.450640     0.011629      0.032455     0.216550     0.076072
C     -0.523404    -0.655263    -0.787531      0.144420    -0.223257    -0.099027
C      0.600889    -0.568896     0.153843     -0.249841     0.284351     0.108062
C      1.593792     0.464592     0.540778      0.062019    -0.218822     0.145593
H     -1.102361     0.867314     0.803910      0.008250    -0.052382    -0.023037
H     -2.499594    -0.263538     0.373600     -0.055063    -0.047476    -0.007864
H     -2.192853     0.960506    -0.767043     -0.009889    -0.059765     0.000548
H     -0.526520    -0.238046    -1.769526     -0.046734    -0.004325     0.028820
H     -1.056279    -1.551380    -0.804510      0.002951     0.070371    -0.006004
H      0.474241    -1.139463     1.019465      0.051133     0.044505    -0.052547
H      1.424305    -1.535344    -0.517936      0.068875    -0.091498    -0.076386
H      2.689186     0.537073     0.706491      0.032245     0.073448    -0.015562
H      1.053590     1.092656     1.275381     -0.031928    -0.005597    -0.000099
H      1.568392     1.109913    -0.461436     -0.008891     0.013896    -0.078570
14
轮次1  Outer Iteration 4, Energy=-157.1855977422, |grad|=0.575113
C     -1.668487     0.422455    -0.011215      0.009884     0.164293     0.064894
C     -0.536990    -0.642177    -0.771608      0.145782    -0.190442    -0.093314
C      0.619831    -0.589976     0.152341     -0.237862     0.267331     0.089312
C      1.608569     0.477672     0.534859      0.079655    -0.179662     0.126808
H     -1.155176     0.886883     0.804056      0.010871    -0.039857    -0.007674
H     -2.485493    -0.257829     0.352102     -0.030374    -0.025176    -0.014323
H     -2.198291     0.957189    -0.786704     -0.015137    -0.046498    -0.006095
H     -0.535248    -0.215784    -1.758420     -0.047295     0.005413     0.020315
H     -1.070307    -1.561529    -0.787978     -0.013466     0.042199    -0.000610
H      0.492638    -1.173851     1.033450      0.043490     0.023800    -0.027405
H      1.411583    -1.524953    -0.517088      0.068924    -0.094208    -0.077078
H      2.698203     0.524357     0.680526      0.020588     0.069036    -0.019274
H      1.088405     1.108098     1.277409     -0.027493    -0.000629    -0.003373
H      1.570020     1.120208    -0.424613     -0.007567     0.004400    -0.052182
14
轮次1  Outer Iteration 5, Energy=-157.2135342711, |grad|=0.505256
C     -1.664666     0.397457    -0.030300      0.001370     0.120753     0.047355
C     -0.550811    -0.629043    -0.757002      0.134067    -0.160572    -0.086528
C      0.638100    -0.613624     0.148201     -0.220000     0.243031     0.077419
C      1.613836     0.490002     0.528616      0.086401    -0.143870     0.107924
H     -1.190697     0.900812     0.799416      0.011248    -0.028662     0.003340
H     -2.476212    -0.257954     0.339862     -0.015633    -0.012523    -0.016414
H     -2.190180     0.957351    -0.799423     -0.016669    -0.035822    -0.008671
H     -0.539042    -0.197135    -1.748150     -0.047082     0.013161     0.014480
H     -1.081346    -1.566046    -0.773359     -0.022679     0.024720     0.004579
H      0.507049    -1.204233     1.041399      0.037755     0.010121    -0.012209
H      1.397048    -1.514056    -0.510981      0.066830    -0.094623    -0.075083
H      2.700825     0.511180     0.660017      0.014460     0.063407    -0.021487
H      1.109275     1.123639     1.276578     -0.024126     0.004839    -0.006204
H      1.566078     1.132414    -0.397759     -0.005944    -0.003961    -0.028502
14
轮次1  Outer Iteration 6, Energy=-157.2368669850, |grad|=0.435417
C     -1.657155     0.377835    -0.043478      0.003860     0.086536     0.030627
C     -0.561968    -0.617750    -0.744551      0.114256    -0.131568    -0.078260
C      0.657245    -0.640262     0.140673     -0.195305     0.211727     0.065538
C      1.610837     0.500374     0.521937      0.085173    -0.114273     0.094345
H     -1.215053     0.910927     0.792327      0.008202    -0.021027     0.007805
H     -2.470931    -0.256359     0.336876     -0.008477    -0.005823    -0.015177
H     -2.175164     0.962631    -0.803975     -0.016341    -0.026960    -0.008701
H     -0.534745    -0.184102    -1.739862     -0.045234     0.018617     0.010073
H     -1.086866    -1.568374    -0.761972     -0.026715     0.013776     0.009157
H      0.518957    -1.231991     1.043825      0.032999     0.001275    -0.003191
H      1.384107    -1.503570    -0.500652      0.061666    -0.091178    -0.068959
H      2.696775     0.498439     0.645838      0.012100     0.056704    -0.022532
H      1.116199     1.136925     1.272784     -0.021473     0.010276    -0.008383
H      1.557017     1.146041    -0.382655     -0.004710    -0.008084    -0.012343
14
轮次1  Outer Iteration 7, Energy=-157.2563146056, |grad|=0.361348
C     -1.647388     0.364498    -0.049660      0.007955     0.059429     0.016524
C     -0.569518    -0.609399    -0.735142      0.090951    -0.104469    -0.069146
C      0.676570    -0.669258     0.129526     -0.163585     0.173254     0.049363
C      1.598832     0.509006     0.513927      0.078677    -0.090115     0.086322
H     -1.225165     0.918880     0.787044      0.004965    -0.015069     0.009595
H     -2.465097    -0.251440     0.341762     -0.004785    -0.001991    -0.012753
H     -2.155081     0.973825    -0.800223     -0.014802    -0.019679    -0.007389
H     -0.521368    -0.178061    -1.734604     -0.041263     0.021602     0.006353
H     -1.086622    -1.570329    -0.754944     -0.026662     0.007135     0.012849
H      0.527218    -1.256721     1.041290      0.028646    -0.003927     0.001661
H      1.373641    -1.494180    -0.486789      0.051996    -0.082031    -0.057297
H      2.683765     0.487543     0.638004      0.011215     0.049240    -0.022962
H      1.107344     1.147259     1.264469     -0.019241     0.015067    -0.010287
H      1.542125     1.159140    -0.377544     -0.004067    -0.008445    -0.002833
14
轮次1  Outer Iteration 8, Energy=-157.2719041773, |grad|=0.281653
C     -1.636355     0.356886    -0.049292      0.009975     0.039335     0.006971
C     -0.573061    -0.603308    -0.727940      0.068336    -0.079534    -0.059676
C      0.695783    -0.698934     0.115660     -0.124357     0.128032     0.026625
C      1.578747     0.515976     0.503630      0.068080    -0.070022     0.081783
H     -1.223036     0.925590     0.784541      0.002126    -0.010552     0.009388
H     -2.458066    -0.243281     0.353475     -0.003091     0.000152    -0.009732
H     -2.131133     0.990187    -0.789648     -0.012463    -0.013531    -0.005570
H     -0.498820    -0.178083    -1.731283     -0.035145     0.022200     0.003119
H     -1.080975    -1.572375    -0.751923     -0.023838     0.002826     0.015617
H      0.531683    -1.277859     1.035026      0.024161    -0.006539     0.003914
H      1.366491    -1.485967    -0.471151      0.036633    -0.065638    -0.039397
H      2.662187     0.478262     0.635571      0.010880     0.041224    -0.022981
H      1.083783     1.153434     1.251037     -0.017273     0.018581    -0.012284
H      1.522028     1.170234    -0.380586     -0.004025    -0.006533     0.002222
14
轮次1  Outer Iteration 9, Energy=-157.2833312908, |grad|=0.202093
C     -1.623531     0.353150    -0.043176      0.008798     0.023689     0.001631
C     -0.573429    -0.597779    -0.721354      0.047658    -0.056078    -0.048979
C      0.712885    -0.725959     0.101158     -0.080031     0.080142    -0.000748
C      1.551254     0.521622     0.489825      0.054530    -0.053333     0.078334
H     -1.209291     0.931109     0.785309      0.000535    -0.006669     0.008373
H     -2.447512    -0.234179     0.370464     -0.001802     0.001254    -0.006850
H     -2.102756     1.009978    -0.773703     -0.009306    -0.008177    -0.003952
H     -0.467398    -0.182646    -1.727982     -0.027079     0.020472     0.000494
H     -1.070685    -1.573741    -0.752539     -0.019213    -0.000090     0.017410
H      0.530515    -1.293357     1.026727      0.019041    -0.007221     0.004328
H      1.363182    -1.478842    -0.456142      0.016733    -0.042965    -0.017155
H      2.631793     0.469090     0.637800      0.010234     0.032771    -0.022590
H      1.046716     1.153842     1.232193     -0.015554     0.019818    -0.014594
H      1.497513     1.178474    -0.391464     -0.004544    -0.003615     0.004297
14
轮次1  Outer Iteration 10, Energy=-157.2907840282, |grad|=0.142269
C     -1.613344     0.351642    -0.033166      0.005261     0.012308    -0.000183
C     -0.571466    -0.591035    -0.713146      0.031027    -0.035094    -0.036816
C      0.725578    -0.744604     0.090359     -0.041590     0.042944    -0.022053
C      1.522213     0.526131     0.471611      0.040194    -0.040800     0.072534
H     -1.193272     0.936366     0.788082     -0.000104    -0.003548     0.006457
H     -2.438078    -0.226620     0.390287     -0.001277     0.001465    -0.003998
H     -2.075937     1.029429    -0.755194     -0.005550    -0.003695    -0.002401
H     -0.428529    -0.189859    -1.721723     -0.017725     0.016254    -0.001086
H     -1.055188    -1.573472    -0.756970     -0.013559    -0.001803     0.017730
H      0.523601    -1.300211     1.019075      0.013095    -0.006440     0.002788
H      1.366436    -1.473091    -0.446475      0.000944    -0.022849     0.000909
H      2.597570     0.456110     0.643956      0.009054     0.024217    -0.021347
H      1.005003     1.146644     1.210541     -0.014252     0.017703    -0.016514
H      1.474670     1.183333    -0.410122     -0.005519    -0.000662     0.003979
14
轮次1  Outer Iteration 11, Energy=-157.2954617746, |grad|=0.105660
C     -1.611153     0.350578    -0.023972      0.002067     0.005545    -0.000354
C     -0.570920    -0.582441    -0.702797      0.018001    -0.019174    -0.025079
C      0.731843    -0.751040     0.087711     -0.020517     0.026942    -0.026337
C      1.503231     0.530638     0.451738      0.029566    -0.032139     0.061641
H     -1.187263     0.941816     0.790277     -0.000126    -0.001635     0.004174
H     -2.433001    -0.227449     0.404944     -0.000883     0.000565    -0.002279
H     -2.062080     1.040374    -0.741519     -0.002140    -0.000809    -0.001222
H     -0.394424    -0.195859    -1.711437     -0.010017     0.010637    -0.001084
H     -1.039826    -1.570008    -0.765253     -0.008428    -0.001902     0.016110
H      0.514766    -1.297239     1.016799      0.007447    -0.005111     0.000023
H      1.372823    -1.467393    -0.444959     -0.002694    -0.014368     0.006792
H      2.570892     0.436749     0.653009      0.007309     0.016819    -0.018644
H      0.979194     1.136174     1.194742     -0.013208     0.013273    -0.015988
H      1.465176     1.185863    -0.432169     -0.006377     0.001357     0.002244
14
轮次1  Outer Iteration 12, Energy=-157.2985590754, |grad|=0.075998
C     -1.614812     0.348077    -0.018083      0.001270     0.002432    -0.000247
C     -0.572962    -0.575489    -0.694614      0.007726    -0.009002    -0.017089
C      0.734363    -0.751337     0.090403     -0.008413     0.018807    -0.021288
C      1.495454     0.536249     0.433943      0.022347    -0.023588     0.046553
H     -1.189273     0.945732     0.789469     -0.000407    -0.001376     0.002238
H     -2.433302    -0.230694     0.416335     -0.001139     0.000483    -0.001503
H     -2.064022     1.039618    -0.734003     -0.000281     0.000005    -0.000100
H     -0.372872    -0.199406    -1.702255     -0.005528     0.005304    -0.000743
H     -1.028668    -1.566002    -0.779757     -0.004577    -0.000807     0.012957
H      0.509221    -1.288686     1.020959      0.003309    -0.003857    -0.001762
H      1.376092    -1.459196    -0.447641     -0.002137    -0.010431     0.006785
H      2.553951     0.414787     0.665715      0.005740     0.011199    -0.014456
H      0.974861     1.129461     1.188187     -0.011439     0.009073    -0.012630
H      1.471226     1.187649    -0.451541     -0.006472     0.001757     0.001286
14
轮次1  Outer Iteration 13, Energy=-157.3006567059, |grad|=0.049940
C     -1.619274     0.345953    -0.013885      0.001323     0.002302     0.000240
C     -0.575527    -0.570323    -0.688769      0.001445    -0.003730    -0.010463
C      0.732808    -0.749975     0.095196     -0.002445     0.012589    -0.013708
C      1.491282     0.541779     0.418475      0.015934    -0.014801     0.030963
H     -1.192149     0.952210     0.785739     -0.000422    -0.001304     0.001248
H     -2.427898    -0.240724     0.428096     -0.000556    -0.000634    -0.001667
H     -2.075305     1.032210    -0.730542      0.000703     0.000834     0.000020
H     -0.359751    -0.197615    -1.694439     -0.003512     0.001565    -0.000883
H     -1.021457    -1.562235    -0.798379     -0.001958    -0.000360     0.009429
H      0.504781    -1.277919     1.029035      0.000644    -0.002646    -0.002463
H      1.374933    -1.450286    -0.451306     -0.000996    -0.007664     0.004648
H      2.539081     0.392185     0.681573      0.004043     0.006983    -0.009720
H      0.980871     1.127435     1.185089     -0.008491     0.005221    -0.008431
H      1.486861     1.188068    -0.468767     -0.005711     0.001645     0.000787
14
轮次1  Outer Iteration 14, Energy=-157.3020163553, |grad|=0.028746
C     -1.629381     0.339605    -0.011267      0.000037     0.001117    -0.000006
C     -0.576599    -0.566226    -0.684399      0.001450    -0.000619    -0.006459
C      0.731274    -0.748086     0.099577      0.000988     0.007202    -0.007338
C      1.491558     0.545204     0.406880      0.009518    -0.007918     0.017080
H     -1.199050     0.962198     0.773085     -0.000656    -0.002411     0.000471
H     -2.431594    -0.241534     0.450840     -0.002634     0.001517    -0.000538
H     -2.098449     1.010705    -0.732680      0.001221     0.000198     0.000856
H     -0.348129    -0.188135    -1.685423     -0.002005    -0.001149    -0.001193
H     -1.014519    -1.557752    -0.821057     -0.000592     0.000669     0.006527
H      0.505388    -1.268809     1.036887     -0.000855    -0.001412    -0.002528
H      1.373746    -1.439687    -0.457157      0.000049    -0.005058     0.002365
H      2.528291     0.367843     0.699068      0.002914     0.003771    -0.005230
H      0.994649     1.128351     1.184547     -0.005111     0.002307    -0.004132
H      1.512072     1.187085    -0.481786     -0.004324     0.001785     0.000125
14
轮次1  Inner Iteration 1, |pred_grad|=0.028701
C     -1.629381     0.339605    -0.011267      0.000038     0.001136    -0.000002
C     -0.576599    -0.566226    -0.684399      0.001393    -0.000614    -0.006443
C      0.731274    -0.748086     0.099577      0.001002     0.007193    -0.007310
C      1.491558     0.545204     0.406880      0.009539    -0.007886     0.017063
H     -1.199050     0.962198     0.773085     -0.000656    -0.002406     0.000472
H     -2.431594    -0.241534     0.450840     -0.002554     0.001342    -0.000548
H     -2.098449     1.010705    -0.732680      0.001215     0.000206     0.000781
H     -0.348129    -0.188135    -1.685423     -0.002025    -0.001150    -0.001194
H     -1.014519    -1.557752    -0.821057     -0.000589     0.000667     0.006525
H      0.505388    -1.268809     1.036887     -0.000863    -0.001412    -0.002527
H      1.373746    -1.439687    -0.457157      0.000054    -0.005068     0.002350
H      2.528291     0.367843     0.699068      0.002913     0.003761    -0.005227
H      0.994649     1.128351     1.184547     -0.005110     0.002306    -0.004131
H      1.512072     1.187085    -0.481786     -0.004324     0.001784     0.000127
14
轮次1  Inner Iteration 2, |pred_grad|=0.027858
C     -1.629385     0.339491    -0.011267      0.000020     0.000957    -0.000060
C     -0.576739    -0.566165    -0.683755      0.001076    -0.000270    -0.006199
C      0.731174    -0.748805     0.100308      0.001407     0.006740    -0.007188
C      1.490604     0.545992     0.405173      0.009349    -0.007409     0.016543
H     -1.198984     0.962439     0.773038     -0.000668    -0.002359     0.000470
H     -2.431339    -0.241668     0.450895     -0.002545     0.001358    -0.000560
H     -2.098570     1.010685    -0.732758      0.001236     0.000287     0.000794
H     -0.347926    -0.188020    -1.685303     -0.001963    -0.001216    -0.001229
H     -1.014460    -1.557819    -0.821710     -0.000542     0.000627     0.006452
H      0.505474    -1.268668     1.037139     -0.000977    -0.001408    -0.002515
H      1.373740    -1.439180    -0.457392      0.000036    -0.004949     0.002345
H      2.528000     0.367467     0.699590      0.002855     0.003587    -0.005097
H      0.995160     1.128120     1.184960     -0.005003     0.002227    -0.004038
H      1.512504     1.186906    -0.481799     -0.004296     0.001777     0.000166
14
轮次1  Inner Iteration 3, |pred_grad|=0.027078
C     -1.629387     0.339396    -0.011261      0.000002     0.000798    -0.000111
C     -0.576846    -0.566138    -0.683135      0.000783     0.000047    -0.005968
C      0.731033    -0.749479     0.101027      0.001782     0.006317    -0.007063
C      1.489669     0.546733     0.403519      0.009166    -0.006959     0.016048
H     -1.198917     0.962675     0.772991     -0.000678    -0.002315     0.000468
H     -2.431084    -0.241804     0.450951     -0.002538     0.001373    -0.000572
H     -2.098694     1.010656    -0.732837      0.001256     0.000362     0.000805
H     -0.347730    -0.187898    -1.685180     -0.001906    -0.001280    -0.001262
H     -1.014406    -1.557881    -0.822355     -0.000497     0.000589     0.006381
H      0.505572    -1.268527     1.037391     -0.001084    -0.001403    -0.002503
H      1.373737    -1.438685    -0.457626      0.000023    -0.004838     0.002335
H      2.527714     0.367108     0.700100      0.002800     0.003423    -0.004971
H      0.995660     1.127897     1.185364     -0.004901     0.002150    -0.003947
H      1.512934     1.186729    -0.481815     -0.004269     0.001771     0.000201
14
轮次1  Inner Iteration 4, |pred_grad|=0.026353
C     -1.629387     0.339316    -0.011250     -0.000014     0.000657    -0.000154
C     -0.576924    -0.566142    -0.682538      0.000513     0.000338    -0.005749
C      0.730855    -0.750111     0.101733      0.002129     0.005922    -0.006937
C      1.488753     0.547429     0.401914      0.008990    -0.006535     0.015574
H     -1.198849     0.962906     0.772945     -0.000686    -0.002275     0.000467
H     -2.430830    -0.241941     0.451008     -0.002533     0.001388    -0.000584
H     -2.098819     1.010620    -0.732918      0.001274     0.000432     0.000816
H     -0.347540    -0.187770    -1.685054     -0.001854    -0.001340    -0.001292
H     -1.014356    -1.557940    -0.822993     -0.000455     0.000555     0.006312
H      0.505680    -1.268386     1.037641     -0.001184    -0.001396    -0.002493
H      1.373734    -1.438202    -0.457860      0.000013    -0.004735     0.002320
H      2.527434     0.366766     0.700597      0.002747     0.003269    -0.004850
H      0.996150     1.127682     1.185759     -0.004801     0.002074    -0.003859
H      1.513361     1.186551    -0.481835     -0.004243     0.001766     0.000231
14
轮次1  Inner Iteration 5, |pred_grad|=0.025680
C     -1.629386     0.339250    -0.011234     -0.000029     0.000535    -0.000192
C     -0.576976    -0.566176    -0.681963      0.000263     0.000605    -0.005540
C      0.730642    -0.750703     0.102427      0.002451     0.005554    -0.006809
C      1.487854     0.548083     0.400357      0.008820    -0.006135     0.015122
H     -1.198781     0.963134     0.772898     -0.000693    -0.002239     0.000466
H     -2.430577    -0.242080     0.451067     -0.002529     0.001401    -0.000597
H     -2.098947     1.010577    -0.732999      0.001290     0.000498     0.000827
H     -0.347354    -0.187636    -1.684925     -0.001805    -0.001398    -0.001321
H     -1.014311    -1.557996    -0.823624     -0.000413     0.000523     0.006244
H      0.505799    -1.268247     1.037891     -0.001278    -0.001387    -0.002484
H      1.373733    -1.437728    -0.458092      0.000007    -0.004638     0.002302
H      2.527159     0.366439     0.701082      0.002696     0.003122    -0.004732
H      0.996630     1.127475     1.186145     -0.004704     0.002000    -0.003774
H      1.513785     1.186375    -0.481858     -0.004217     0.001761     0.000256
14
轮次2  Outer Iteration 0, Energy=-157.3022365327, |grad|=0.019618
C     -1.629383     0.339197    -0.011215      0.000142    -0.000810    -0.001040
C     -0.577002    -0.566237    -0.681409      0.000721     0.001695    -0.001035
C      0.730397    -0.751258     0.103108      0.001055    -0.001134     0.001135
C      1.486972     0.548696     0.398845     -0.000386     0.003048    -0.002640
H     -1.198711     0.963358     0.772851     -0.000082    -0.001782     0.001131
H     -2.430324    -0.242220     0.451126     -0.001792     0.001662    -0.001045
H     -2.099076     1.010527    -0.733082      0.000784     0.001017     0.000398
H     -0.347174    -0.187496    -1.684793     -0.001945    -0.000357    -0.004467
H     -1.014269    -1.558048    -0.824249     -0.000222    -0.000180     0.005686
H      0.505927    -1.268108     1.038139     -0.000737     0.000503    -0.006702
H      1.373732    -1.437264    -0.458322      0.000119    -0.003545     0.001772
H      2.526890     0.366127     0.701555      0.009759     0.001748    -0.001327
H      0.997101     1.127275     1.186522     -0.004384     0.001931    -0.000823
H      1.514207     1.186199    -0.481884     -0.003031    -0.003796     0.008958
14
轮次2  Outer Iteration 1, Energy=-157.3031777157, |grad|=0.014004
C     -1.662085     0.321142    -0.004769      0.000333     0.003229     0.000756
C     -0.582434    -0.547539    -0.679028     -0.000375    -0.001467    -0.003214
C      0.713681    -0.728647     0.119730      0.002157     0.003891     0.000842
C      1.510058     0.548660     0.382984      0.001692    -0.002009     0.003039
H     -1.256950     0.962940     0.779028     -0.002196    -0.001166     0.001014
H     -2.431519    -0.302191     0.456504     -0.000342    -0.000950    -0.002171
H     -2.160668     0.972712    -0.725323      0.001496     0.001645     0.000440
H     -0.326684    -0.136160    -1.658800     -0.000975    -0.003872     0.000634
H     -0.998559    -1.539288    -0.878352      0.000116    -0.000720     0.001687
H      0.494094    -1.228616     1.072307     -0.001268    -0.001817     0.002065
H      1.356300    -1.412014    -0.442820      0.001115     0.003188    -0.000342
H      2.512930     0.292784     0.721758     -0.005093    -0.000950    -0.001681
H      1.062839     1.170109     1.159711      0.003160    -0.002537     0.001103
H      1.608283     1.156855    -0.525737      0.000181     0.003536    -0.004172
14
轮次2  Outer Iteration 2, Energy=-157.3039733223, |grad|=0.009126
C     -1.648535     0.314671     0.008364     -0.000085     0.001218     0.000499
C     -0.575564    -0.537351    -0.693048      0.001925     0.000914    -0.002724
C      0.708974    -0.739277     0.115436      0.001034     0.000300    -0.000992
C      1.497351     0.543723     0.377959     -0.002513     0.000008     0.001845
H     -1.218256     0.970010     0.768127      0.000600    -0.001329     0.001977
H     -2.390611    -0.313280     0.506943     -0.001174     0.000045    -0.001820
H     -2.183419     0.950414    -0.700176      0.001704     0.001643     0.000326
H     -0.314376    -0.093632    -1.658150     -0.001265    -0.002789    -0.000493
H     -0.993596    -1.521357    -0.923671      0.000932    -0.000812     0.002106
H      0.472446    -1.223705     1.071071     -0.000460    -0.000365     0.001597
H      1.351028    -1.437601    -0.430244      0.000446     0.000566    -0.000219
H      2.486202     0.306624     0.772705     -0.002557    -0.000387    -0.001294
H      1.010649     1.193991     1.107229      0.001639    -0.000597     0.001589
H      1.636992     1.117518    -0.545352     -0.000225     0.001585    -0.002396
14
轮次2  Outer Iteration 3, Energy=-157.3047588007, |grad|=0.011177
C     -1.666517     0.303659     0.012352     -0.002016    -0.000591    -0.001928
C     -0.575042    -0.513999    -0.696776      0.001917     0.000305     0.002452
C      0.707511    -0.733568     0.112060     -0.001560     0.001038    -0.003618
C      1.524478     0.532689     0.380392      0.000481     0.000659    -0.000868
H     -1.244050     1.001877     0.737029      0.000729    -0.002592     0.001354
H     -2.362044    -0.341744     0.554202     -0.002011     0.000744    -0.001877
H     -2.254554     0.889712    -0.697039      0.001006     0.001896     0.000685
H     -0.316298    -0.039794    -1.650056     -0.001397    -0.001111    -0.002148
H     -0.987515    -1.493910    -0.953251     -0.000400    -0.000350     0.003220
H      0.453673    -1.211226     1.063778     -0.000408     0.000827    -0.002132
H      1.337822    -1.451219    -0.423094      0.001067    -0.000876     0.001089
H      2.500629     0.296755     0.817557      0.004617     0.001578     0.000208
H      1.015415     1.212907     1.067086     -0.000389     0.000200     0.000416
H      1.705779     1.078607    -0.547049     -0.001637    -0.001725     0.003147
14
轮次2  Outer Iteration 4, Energy=-157.3056157496, |grad|=0.008876
C     -1.664478     0.299626     0.019532     -0.000068     0.000201    -0.000182
C     -0.572279    -0.498041    -0.706932      0.001517     0.000331     0.000069
C      0.701812    -0.733128     0.110286     -0.000883     0.000852    -0.000950
C      1.526867     0.525931     0.381100      0.000000     0.001135    -0.001726
H     -1.247728     1.044933     0.699633     -0.000153    -0.001799     0.002081
H     -2.305543    -0.356991     0.612965     -0.001675     0.000228    -0.001965
H     -2.306205     0.829813    -0.687309      0.001609     0.001891     0.000342
H     -0.311027     0.000226    -1.647366     -0.001962    -0.000979    -0.002499
H     -0.980325    -1.473232    -0.988216      0.000819    -0.001023     0.002970
H      0.435870    -1.208705     1.060179     -0.000392     0.000206    -0.001695