9
轮次1  Outer Iteration 0, Energy=-117.0602001512, |grad|=0.091886
C     -0.215591     0.830791    -0.109721      0.007247     0.016271     0.001040
C     -0.604518    -0.623868     0.074381      0.005562    -0.007279     0.005650
C      0.845513    -0.259844     0.054001     -0.006040    -0.043920     0.002910
H     -0.486077     1.462670     0.748539     -0.023587     0.001018     0.021542
H     -0.305665     1.288889    -1.113369      0.008444     0.012236    -0.031722
H     -1.032087    -1.072100    -0.824963     -0.009376     0.013129    -0.017661
H     -1.020370    -0.955059     1.034330      0.002782    -0.010776     0.021067
H      1.414635    -0.139571     0.994261      0.011380     0.029163     0.026449
H      1.404160    -0.531908    -0.857460      0.003587    -0.009842    -0.029275
9
轮次1  Outer Iteration 1, Energy=-117.0656229829, |grad|=0.050445
C     -0.220939     0.827826    -0.108747      0.000701     0.024477    -0.006232
C     -0.606626    -0.617798     0.067277     -0.004940    -0.009012     0.005737
C      0.840050    -0.235839     0.051211      0.014116    -0.024832     0.004741
H     -0.441648     1.472957     0.725915     -0.008323    -0.009586    -0.003528
H     -0.332763     1.275770    -1.080230      0.006815    -0.004271     0.007826
H     -1.015503    -1.105882    -0.805133     -0.002628     0.010002     0.000471
H     -1.030808    -0.937115     1.005428      0.007323    -0.001953    -0.004832
H      1.400435    -0.177631     0.967791     -0.004262     0.015336    -0.009242
H      1.407802    -0.502286    -0.823512     -0.008803    -0.000161     0.005058
9
轮次1  Outer Iteration 2, Energy=-117.0671537019, |grad|=0.017824
C     -0.231369     0.830648    -0.110552     -0.000235     0.002126    -0.000757
C     -0.606286    -0.614720     0.064690      0.003605     0.000746     0.000335
C      0.837416    -0.217692     0.048045     -0.005272    -0.005065     0.001147
H     -0.409503     1.500168     0.726594     -0.001233     0.001801     0.005433
H     -0.369431     1.282687    -1.090814     -0.000835     0.002885    -0.007375
H     -0.991998    -1.142438    -0.801449     -0.000281    -0.000506    -0.003431
H     -1.045238    -0.923802     1.009154     -0.001530    -0.002025     0.004449
H      1.392161    -0.235534     0.983937      0.003502     0.001587     0.006645
H      1.424247    -0.479316    -0.829605      0.002279    -0.001550    -0.006445
9
轮次1  Outer Iteration 3, Energy=-117.0672844778, |grad|=0.005019
C     -0.231913     0.825904    -0.109524     -0.000342    -0.002261    -0.001336
C     -0.605245    -0.615451     0.063822      0.001590     0.000210     0.002166
C      0.839443    -0.210768     0.045243     -0.000295     0.002461    -0.000967
H     -0.412185     1.499077     0.718997     -0.000285    -0.000563    -0.000097
H     -0.366106     1.277623    -1.083933      0.000595     0.000182     0.000677
H     -1.000000    -1.142900    -0.795613     -0.000619     0.000685    -0.000117
H     -1.042338    -0.917869     1.007146     -0.000814     0.000196    -0.000339
H      1.387724    -0.246073     0.978115     -0.000183    -0.000728    -0.000293
H      1.430620    -0.469542    -0.824253      0.000352    -0.000182     0.000306
9
轮次1  Outer Iteration 4, Energy=-117.0672873744, |grad|=0.003603
C     -0.230775     0.828184    -0.108109      0.000808     0.000437     0.000697
C     -0.608888    -0.613697     0.061169     -0.001689     0.000618    -0.001585
C      0.836849    -0.213450     0.046503     -0.000123    -0.000625     0.000713
H     -0.405488     1.503999     0.719342      0.000592     0.000175    -0.000476
H     -0.368997     1.277749    -1.082879     -0.000369    -0.000410     0.000730
H     -0.996396    -1.147414    -0.797395      0.000548    -0.000774     0.000408
H     -1.039061    -0.921627     1.005433      0.000885    -0.000133    -0.000454
H      1.385386    -0.242831     0.979082     -0.000138     0.000555    -0.000670
H      1.427368    -0.470914    -0.823147     -0.000514     0.000157     0.000637
9
轮次1  Outer Iteration 5, Energy=-117.0672968794, |grad|=0.000713
C     -0.231064     0.827632    -0.108633      0.000085     0.000335    -0.000047
C     -0.606798    -0.614674     0.062596     -0.000084    -0.000168     0.000061
C      0.838525    -0.213202     0.046181      0.000313    -0.000404     0.000036
H     -0.409819     1.502123     0.719397     -0.000102    -0.000015     0.000015
H     -0.368125     1.277137    -1.084240     -0.000182     0.000016    -0.000084
H     -0.997938    -1.144467    -0.796879      0.000077     0.000084     0.000021
H     -1.040643    -0.919428     1.006735     -0.000056     0.000069     0.000004
H      1.386923    -0.245296     0.979302     -0.000029    -0.000015     0.000022
H      1.428940    -0.469825    -0.824458     -0.000023     0.000100    -0.000027
9
轮次1  Outer Iteration 6, Energy=-117.0672967998, |grad|=0.000651
C     -0.231810     0.827486    -0.108635     -0.000294    -0.000184    -0.000031
C     -0.607010    -0.614856     0.062556      0.000114    -0.000026     0.000083
C      0.838026    -0.212477     0.046035     -0.000202     0.000336    -0.000065
H     -0.409329     1.502303     0.719413      0.000105     0.000037     0.000040
H     -0.366541     1.277626    -1.084213      0.000255     0.000077    -0.000028
H     -0.998345    -1.144967    -0.796773     -0.000055    -0.000017    -0.000052
H     -1.040069    -0.920417     1.006844      0.000019    -0.000098     0.000049
H      1.386558    -0.244634     0.979134      0.000031    -0.000005     0.000045
H      1.428519    -0.470064    -0.824362      0.000027    -0.000120    -0.000041
9
轮次1  Outer Iteration 7, Energy=-117.0672971397, |grad|=0.000133
C     -0.231305     0.827509    -0.108589      0.000037    -0.000064     0.000013
C     -0.606926    -0.614676     0.062463      0.000027     0.000052    -0.000029
C      0.838285    -0.212811     0.046110     -0.000048     0.000052     0.000011
H     -0.409520     1.502151     0.719419      0.000000    -0.000003     0.000004
H     -0.367531     1.277219    -1.084123     -0.000013    -0.000022     0.000017
H     -0.998270    -1.144735    -0.796853     -0.000024    -0.000014    -0.000014
H     -1.040342    -0.919796     1.006681     -0.000005     0.000007    -0.000003
H      1.386760    -0.244908     0.979200      0.000016     0.000007     0.000003
H      1.428849    -0.469952    -0.824309      0.000010    -0.000016    -0.000003
