9
初始采样  Outer Iteration 1, Energy=-117.0602001512, |grad|=0.091886
C     -0.215591     0.830791    -0.109721      0.007247     0.016271     0.001040
C     -0.604518    -0.623868     0.074381      0.005562    -0.007279     0.005650
C      0.845513    -0.259844     0.054001     -0.006040    -0.043920     0.002910
H     -0.486077     1.462670     0.748539     -0.023587     0.001018     0.021542
H     -0.305665     1.288889    -1.113369      0.008444     0.012236    -0.031722
H     -1.032087    -1.072100    -0.824963     -0.009376     0.013129    -0.017661
H     -1.020370    -0.955059     1.034330      0.002782    -0.010776     0.021067
H      1.414635    -0.139571     0.994261      0.011380     0.029163     0.026449
H      1.404160    -0.531908    -0.857460      0.003587    -0.009842    -0.029275
9
初始采样  Outer Iteration 2, Energy=-117.0630328510, |grad|=0.062435
C     -0.215002     0.827031    -0.109123      0.005412     0.021762    -0.003816
C     -0.605362    -0.620819     0.072203     -0.000850    -0.008362     0.007841
C      0.843405    -0.251146     0.052999      0.006564    -0.036864     0.003918
H     -0.471906     1.458436     0.736789     -0.017596    -0.007359     0.007281
H     -0.309273     1.278424    -1.094610      0.009380     0.002382    -0.009150
H     -1.028912    -1.078260    -0.815543     -0.006254     0.014409    -0.007938
H     -1.021528    -0.947584     1.020149      0.006933    -0.006282     0.006388
H      1.407092    -0.146087     0.977281      0.001350     0.024810     0.005699
H      1.401486    -0.519995    -0.840146     -0.004939    -0.004496    -0.010222
9
初始采样  Outer Iteration 3, Energy=-117.0645604832, |grad|=0.047802
C     -0.216866     0.825378    -0.108864      0.005669     0.016345    -0.003902
C     -0.606574    -0.618760     0.069501     -0.000994    -0.005179     0.005890
C      0.841366    -0.242503     0.051865      0.005273    -0.028176     0.003788
H     -0.458122     1.464451     0.732577     -0.013780    -0.007233     0.003859
H     -0.319394     1.277069    -1.088750      0.008005     0.000269    -0.003299
H     -1.025586    -1.091421    -0.810897     -0.005543     0.011624    -0.004919
H     -1.026970    -0.943203     1.013887      0.006177    -0.005055     0.002750
H      1.405652    -0.159766     0.973482      0.000314     0.020487     0.000591
H      1.406494    -0.511245    -0.832801     -0.005121    -0.003082    -0.004758
9
初始采样  Outer Iteration 4, Energy=-117.0656800265, |grad|=0.035429
C     -0.219871     0.825304    -0.109052      0.005143     0.010980    -0.002674
C     -0.607163    -0.617355     0.067482     -0.000393    -0.002883     0.003951
C      0.839815    -0.235214     0.050562      0.002157    -0.020916     0.002971
H     -0.446149     1.472706     0.729380     -0.010583    -0.005611     0.002476
H     -0.331092     1.278978    -1.086582      0.006072     0.000514    -0.002051
H     -1.020300    -1.104627    -0.807102     -0.004573     0.008756    -0.003105
H     -1.031451    -0.939089     1.010528      0.004765    -0.004257     0.001440
H      1.403863    -0.176880     0.973659      0.001020     0.015993    -0.000103
H      1.412347    -0.503821    -0.828876     -0.003609    -0.002576    -0.002905
9
初始采样  Outer Iteration 5, Energy=-117.0664929350, |grad|=0.024058
C     -0.222907     0.825428    -0.109294      0.004369     0.006314    -0.002374
C     -0.607493    -0.616213     0.065773      0.000167    -0.000904     0.002663
C      0.838740    -0.228104     0.049083      0.000271    -0.013917     0.002120
H     -0.434444     1.480858     0.726477     -0.007467    -0.003868     0.001584
H     -0.342331     1.279975    -1.084624      0.004290     0.000394    -0.000528
H     -1.014306    -1.117472    -0.803897     -0.003561     0.005812    -0.002077
H     -1.035470    -0.934146     1.008295      0.003237    -0.003314     0.000709
H      1.400471    -0.194746     0.974116      0.001068     0.011419    -0.000819
H      1.417740    -0.495580    -0.825929     -0.002374    -0.001935    -0.001277
9
轮次1  Outer Iteration 0, Energy=-117.0664929350, |grad|=0.024058
C     -0.222907     0.825428    -0.109294      0.004369     0.006314    -0.002374
C     -0.607493    -0.616213     0.065773      0.000167    -0.000904     0.002663
C      0.838740    -0.228104     0.049083      0.000271    -0.013917     0.002120
H     -0.434444     1.480858     0.726477     -0.007467    -0.003868     0.001584
H     -0.342331     1.279975    -1.084624      0.004290     0.000394    -0.000528
H     -1.014306    -1.117472    -0.803897     -0.003561     0.005812    -0.002077
H     -1.035470    -0.934146     1.008295      0.003237    -0.003314     0.000709
H      1.400471    -0.194746     0.974116      0.001068     0.011419    -0.000819
H      1.417740    -0.495580    -0.825929     -0.002374    -0.001935    -0.001277
9
轮次1  Outer Iteration 1, Energy=-117.0670152980, |grad|=0.014781
C     -0.226568     0.827064    -0.109540      0.002296     0.004853    -0.001843
C     -0.607312    -0.615379     0.064464      0.000214    -0.000744     0.001571
C      0.837997    -0.222030     0.048113     -0.000138    -0.008748     0.001604
H     -0.422871     1.489793     0.723789     -0.004213    -0.002345     0.000672
H     -0.354374     1.281241    -1.083809      0.002324     0.000449     0.000107
H     -1.005933    -1.129834    -0.800926     -0.001954     0.003252    -0.000899
H     -1.038840    -0.929141     1.006440      0.001968    -0.002157    -0.000073
H      1.396298    -0.213953     0.975565      0.000958     0.006740    -0.000888
H      1.421603    -0.487762    -0.824096     -0.001456    -0.001301    -0.000252
9
轮次1  Outer Iteration 2, Energy=-117.0672664333, |grad|=0.004685
C     -0.229608     0.826464    -0.109420      0.001172    -0.000134    -0.001090
C     -0.606961    -0.614978     0.063728      0.000698     0.000563     0.001228
C      0.838275    -0.215530     0.046383     -0.001077    -0.002033     0.000091
H     -0.413254     1.496241     0.721636     -0.001394    -0.000824     0.000722
H     -0.363436     1.278779    -1.084189      0.000784     0.000322    -0.000208
H     -1.000344    -1.139791    -0.798171     -0.000719     0.001049    -0.000670
H     -1.042170    -0.921724     1.006899      0.000049    -0.000715     0.000318
H      1.390419    -0.233972     0.977916      0.000501     0.002124     0.000123
H      1.427079    -0.475489    -0.824782     -0.000014    -0.000354    -0.000514
9
轮次1  Outer Iteration 3, Energy=-117.0672923980, |grad|=0.001979
C     -0.231576     0.828791    -0.108715     -0.000052     0.000703     0.000013
C     -0.607394    -0.613801     0.061814     -0.000590     0.000094    -0.000751
C      0.837638    -0.212105     0.046408      0.000095     0.000337     0.000583
H     -0.408148     1.503952     0.719075      0.000242     0.000128    -0.000254
H     -0.368996     1.278943    -1.083713     -0.000212     0.000041     0.000310
H     -0.996662    -1.145570    -0.797220      0.000235    -0.000304     0.000251
H     -1.037989    -0.921946     1.005976      0.000743    -0.000314    -0.000333
H      1.385836    -0.245007     0.979429     -0.000013    -0.000137    -0.000264
H      1.427291    -0.473258    -0.823055     -0.000449    -0.000547     0.000444
9
轮次1  Outer Iteration 4, Energy=-117.0672932697, |grad|=0.001612
C     -0.231191     0.826613    -0.108459     -0.000103    -0.000270     0.000003
C     -0.606637    -0.615530     0.062927      0.000087    -0.000573     0.000581
C      0.838862    -0.213362     0.045854      0.000480    -0.000220    -0.000427
H     -0.409065     1.501738     0.719148      0.000144     0.000008    -0.000114
H     -0.367799     1.276018    -1.084070     -0.000137    -0.000055     0.000057
H     -0.998855    -1.145013    -0.796219      0.000023     0.000126     0.000077
H     -1.042832    -0.917489     1.006861     -0.000626     0.000517    -0.000121
H      1.387049    -0.246646     0.978986     -0.000138    -0.000226    -0.000053
H      1.430469    -0.466328    -0.825030      0.000269     0.000694    -0.000003
9
轮次1  Outer Iteration 5, Energy=-117.0672970350, |grad|=0.000469
C     -0.231416     0.827569    -0.108643     -0.000067    -0.000121    -0.000060
C     -0.606909    -0.614631     0.062622      0.000139     0.000107     0.000150
C      0.838241    -0.212728     0.046004     -0.000127     0.000142    -0.000114
H     -0.409822     1.502084     0.719499     -0.000058    -0.000005     0.000096
H     -0.366955     1.277432    -1.084284      0.000107     0.000045    -0.000095
H     -0.998223    -1.144624    -0.796790     -0.000006     0.000012    -0.000086
H     -1.040232    -0.919862     1.006953     -0.000043    -0.000062     0.000119
H      1.386650    -0.245159     0.979186     -0.000001    -0.000043     0.000098
H      1.428668    -0.470081    -0.824548      0.000056    -0.000074    -0.000108
