9
初始采样  Outer Iteration 1, Energy=-116.7759337809, |grad|=1.812408
C     -0.031584     0.910596     0.090226     -0.106753     0.321789     0.542170
C     -0.716491    -0.679445     0.170318     -0.232164    -0.166458     0.175306
C      1.044095    -0.333305    -0.091381      0.827107    -0.197383    -1.002545
H     -0.532485     1.390878     0.695105      0.125717    -0.210204    -0.288703
H     -0.221805     1.448946    -1.099723     -0.008632     0.062707    -0.146457
H     -1.133169    -1.003377    -0.800271      0.013068     0.005272    -0.053303
H     -1.003346    -0.797680     1.171442      0.015376     0.045069    -0.036088
H      1.337040    -0.087103     1.066356     -0.033935     0.086635     0.120985
H      1.592331    -0.374481    -0.680489     -0.599786     0.052572     0.688635
9
初始采样  Outer Iteration 2, Energy=-116.8242078447, |grad|=1.455240
C     -0.033542     0.908757     0.088629     -0.073146     0.287421     0.497183
C     -0.716331    -0.676297     0.170578     -0.230663    -0.164275     0.168400
C      1.037403    -0.333458    -0.083386      0.646612    -0.182915    -0.801856
H     -0.544181     1.401234     0.704175      0.093630    -0.178758    -0.246839
H     -0.220250     1.440438    -1.095801     -0.007988     0.061063    -0.144508
H     -1.130695    -1.001811    -0.798121      0.014387     0.006125    -0.050921
H     -1.006909    -0.794599     1.172962      0.014810     0.044500    -0.032296
H      1.331297    -0.089788     1.067922     -0.034785     0.085795     0.116407
H      1.617794    -0.379450    -0.705376     -0.422857     0.041044     0.494430
9
初始采样  Outer Iteration 3, Energy=-116.8614211043, |grad|=1.206888
C     -0.035088     0.906074     0.084769     -0.036876     0.249911     0.447517
C     -0.713008    -0.671494     0.169099     -0.228371    -0.161146     0.158417
C      1.028806    -0.332699    -0.074927      0.524152    -0.171611    -0.664438
H     -0.556227     1.413245     0.713683      0.059308    -0.144966    -0.202580
H     -0.218561     1.428204    -1.089603     -0.007435     0.058557    -0.140907
H     -1.125236    -0.998869    -0.796418      0.016248     0.007481    -0.047377
H     -1.007760    -0.791260     1.173426      0.014046     0.043661    -0.026918
H      1.326230    -0.094289     1.066046     -0.035405     0.084317     0.109795
H      1.635430    -0.383884    -0.724494     -0.305667     0.033796     0.366492
9
初始采样  Outer Iteration 4, Energy=-116.8911061361, |grad|=1.019827
C     -0.036887     0.903275     0.080292     -0.007479     0.218584     0.405179
C     -0.708223    -0.665750     0.167082     -0.225339    -0.157384     0.147993
C      1.019006    -0.331172    -0.065961      0.429910    -0.161321    -0.557338
H     -0.566600     1.424256     0.721387      0.031919    -0.117721    -0.167204
H     -0.217345     1.414695    -1.081723     -0.006904     0.055502    -0.136054
H     -1.118562    -0.995208    -0.794911      0.018197     0.008973    -0.043606
H     -1.007269    -0.787838     1.173231      0.013383     0.042754    -0.021560
H      1.321197    -0.099403     1.063163     -0.036016     0.082447     0.102092
H      1.649269    -0.387830    -0.740977     -0.217671     0.028166     0.270499
9
初始采样  Outer Iteration 5, Energy=-116.9153687062, |grad|=0.878487
C     -0.038814     0.900386     0.075074      0.017265     0.191176     0.366838
C     -0.701923    -0.659219     0.164468     -0.221308    -0.152885     0.137358
C      1.008287    -0.329008    -0.056757      0.358261    -0.151891    -0.474457
H     -0.575542     1.434752     0.727799      0.009182    -0.094716    -0.137605
H     -0.216579     1.400140    -1.072603     -0.006376     0.051825    -0.129756
H     -1.110755    -0.991033    -0.793733      0.020143     0.010550    -0.039749
H     -1.005292    -0.784488     1.172254      0.012852     0.041780    -0.016359
H      1.316528    -0.105148     1.059362     -0.036599     0.080167     0.093368
H      1.658675    -0.391355    -0.754283     -0.153421     0.023995     0.200364
9
轮次1  Outer Iteration 0, Energy=-116.9153687062, |grad|=0.878487
C     -0.038814     0.900386     0.075074      0.017265     0.191176     0.366838
C     -0.701923    -0.659219     0.164468     -0.221308    -0.152885     0.137358
C      1.008287    -0.329008    -0.056757      0.358261    -0.151891    -0.474457
H     -0.575542     1.434752     0.727799      0.009182    -0.094716    -0.137605
H     -0.216579     1.400140    -1.072603     -0.006376     0.051825    -0.129756
H     -1.110755    -0.991033    -0.793733      0.020143     0.010550    -0.039749
H     -1.005292    -0.784488     1.172254      0.012852     0.041780    -0.016359
H      1.316528    -0.105148     1.059362     -0.036599     0.080167     0.093368
H      1.658675    -0.391355    -0.754283     -0.153421     0.023995     0.200364
9
轮次1  Outer Iteration 1, Energy=-116.9356324803, |grad|=0.758969
C     -0.040958     0.897738     0.069875      0.038564     0.166666     0.331304
C     -0.695718    -0.652745     0.161927     -0.216613    -0.148146     0.127011
C      0.997629    -0.326679    -0.047318      0.295605    -0.142476    -0.400849
H     -0.584030     1.445350     0.733944     -0.010346    -0.074392    -0.111617
H     -0.216240     1.386043    -1.063808     -0.005833     0.047881    -0.122808
H     -1.103205    -0.987018    -0.792571      0.021922     0.012090    -0.036026
H     -1.003398    -0.781542     1.171114      0.012380     0.040764    -0.011538
H      1.312240    -0.111055     1.056188     -0.037183     0.077700     0.084494
H      1.668266    -0.395064    -0.767768     -0.098496     0.019913     0.140029
9
轮次1  Outer Iteration 2, Energy=-116.9529809308, |grad|=0.676195
C     -0.043252     0.894941     0.063469      0.054102     0.146947     0.299718
C     -0.686656    -0.644922     0.158318     -0.209809    -0.141854     0.116730
C      0.985530    -0.323289    -0.037920      0.254184    -0.134231    -0.350706
H     -0.589139     1.454037     0.737155     -0.024119    -0.059657    -0.092926
H     -0.216652     1.370481    -1.052897     -0.005245     0.042861    -0.113090
H     -1.093663    -0.982149    -0.792142      0.023583     0.013664    -0.032435
H     -0.998501    -0.778731     1.168476      0.012234     0.039644    -0.007117
H      1.308662    -0.117817     1.051336     -0.037670     0.074630     0.074163
H      1.668257    -0.397523    -0.774213     -0.067260     0.017997     0.105663
9
轮次1  Outer Iteration 3, Energy=-116.9682901023, |grad|=0.606252
C     -0.045905     0.892395     0.056847      0.065606     0.130436     0.270501
C     -0.676648    -0.636720     0.154528     -0.201118    -0.134506     0.107353
C      0.973002    -0.319513    -0.028471      0.219069    -0.126267    -0.308352
H     -0.592310     1.461727     0.738939     -0.034192    -0.048346    -0.078596
H     -0.217783     1.355316    -1.041829     -0.004573     0.037263    -0.101704
H     -1.083835    -0.977317    -0.792038      0.024869     0.015052    -0.029379
H     -0.992548    -0.776321     1.165077      0.012353     0.038487    -0.003446
H      1.305617    -0.124805     1.047041     -0.038014     0.071315     0.063862
H      1.664996    -0.399736    -0.778511     -0.044001     0.016566     0.079760
9
轮次1  Outer Iteration 4, Energy=-116.9818980468, |grad|=0.544609
C     -0.048860     0.890136     0.050007      0.074166     0.116010     0.242294
C     -0.665927    -0.628319     0.150558     -0.190355    -0.126120     0.098513
C      0.960337    -0.315429    -0.019011      0.188425    -0.118640    -0.272149
H     -0.593862     1.468827     0.739794     -0.041706    -0.039282    -0.067067
H     -0.219614     1.340864    -1.031242     -0.003838     0.031208    -0.088896
H     -1.073932    -0.972657    -0.792168      0.025773     0.016274    -0.026743
H     -0.985827    -0.774553     1.161014      0.012656     0.037232    -0.000329
H      1.303402    -0.132102     1.043416     -0.038104     0.067785     0.053877
H      1.658869    -0.401740    -0.780785     -0.027018     0.015535     0.060500
9
轮次1  Outer Iteration 5, Energy=-116.9940009573, |grad|=0.488296
C     -0.052150     0.888223     0.043045      0.080144     0.103267     0.214940
C     -0.654728    -0.619834     0.146484     -0.177347    -0.116694     0.090144
C      0.947719    -0.311054    -0.009477      0.160402    -0.111385    -0.240507
H     -0.593854     1.475427     0.739935     -0.047062    -0.032082    -0.057785
H     -0.222189     1.327460    -1.021626     -0.003079     0.024895    -0.075096
H     -1.064218    -0.968302    -0.792429      0.026234     0.017301    -0.024522
H     -0.978639    -0.773605     1.156332      0.013110     0.035841     0.002255
H      1.302192    -0.139719     1.040705     -0.037813     0.064082     0.044564
H      1.650453    -0.403567    -0.781386     -0.014590     0.014775     0.046007
9
轮次1  Outer Iteration 6, Energy=-117.0047169718, |grad|=0.435691
C     -0.055788     0.886704     0.036022      0.083951     0.091779     0.188487
C     -0.643305    -0.611389     0.142362     -0.162050    -0.106295     0.082111
C      0.935384    -0.306380     0.000191      0.133899    -0.104563    -0.212456
H     -0.592363     1.481676     0.739631     -0.050663    -0.026339    -0.050184
H     -0.225528     1.315392    -1.013485     -0.002376     0.018600    -0.060955
H     -1.054971    -0.964401    -0.792702      0.026199     0.018116    -0.022661
H     -0.971334    -0.773683     1.151065      0.013658     0.034264     0.004356
H      1.302227    -0.147678     1.039047     -0.037006     0.060236     0.036211
H      1.640264    -0.405214    -0.780548     -0.005612     0.014203     0.035091
9
轮次1  Outer Iteration 7, Energy=-117.0141340196, |grad|=0.386182
C     -0.059776     0.885628     0.028996      0.085913     0.081275     0.163328
C     -0.631973    -0.603120     0.138246     -0.144655    -0.095098     0.074300
C      0.923628    -0.301355     0.010059      0.108373    -0.098213    -0.187301
H     -0.589411     1.487684     0.739120     -0.052791    -0.021777    -0.043868
H     -0.229633     1.304913    -1.007261     -0.001833     0.012653    -0.047303
H     -1.046527    -0.961125    -0.792849      0.025611     0.018699    -0.021083
H     -0.964344    -0.775003     1.145237      0.014228     0.032444     0.006014
H      1.303778    -0.155965     1.038504     -0.035564     0.056261     0.029014
H      1.628845    -0.406629    -0.778469      0.000717     0.013754     0.026897
9
轮次1  Outer Iteration 8, Energy=-117.0223410738, |grad|=0.339929
C     -0.064104     0.885030     0.022020      0.086330     0.071648     0.140020
C     -0.621129    -0.595190     0.134191     -0.125715    -0.083422     0.066633
C      0.912818    -0.295890     0.020164      0.083883    -0.092329    -0.164545
H     -0.584982     1.493539     0.738614     -0.053663    -0.018189    -0.038533
H     -0.234448     1.296203    -1.003272     -0.001557     0.007384    -0.035011
H     -1.039279    -0.958685    -0.792724      0.024420     0.019029    -0.019690
H     -0.958184    -0.777765     1.138862      0.014730     0.030329     0.007255
H      1.307111    -0.164492     1.039053     -0.033409     0.052173     0.023059
H      1.616783    -0.407721    -0.775325      0.004982     0.013378     0.020813
9
轮次1  Outer Iteration 9, Energy=-117.0294457276, |grad|=0.297570
C     -0.068743     0.884917     0.015140      0.085478     0.062960     0.119074
C     -0.611219    -0.587781     0.130250     -0.106216    -0.071749     0.059091
C      0.903356    -0.289885     0.030484      0.061056    -0.086831    -0.143822
H     -0.579043     1.499295     0.738294     -0.053460    -0.015415    -0.033953
H     -0.239839     1.289342    -1.001625     -0.001625     0.003040    -0.024785
H     -1.033614    -0.957318    -0.792191      0.022602     0.019084    -0.018376
H     -0.953412    -0.782099     1.131964      0.015064     0.027887     0.008095
H      1.312406    -0.173067     1.040578     -0.030542     0.047994     0.018308
H      1.604695    -0.408376    -0.771312      0.007643     0.013032     0.016369
9
轮次1  Inner Iteration 1, |pred_grad|=0.297711
C     -0.068743     0.884917     0.015140      0.085482     0.062991     0.119124
C     -0.611219    -0.587781     0.130250     -0.106274    -0.071790     0.059141
C      0.903356    -0.289885     0.030484      0.061114    -0.086872    -0.143905
H     -0.579043     1.499295     0.738294     -0.053463    -0.015424    -0.033972
H     -0.239839     1.289342    -1.001625     -0.001620     0.003021    -0.024738
H     -1.033614    -0.957318    -0.792191      0.022606     0.019089    -0.018388
H     -0.953412    -0.782099     1.131964      0.015066     0.027902     0.008095
H      1.312406    -0.173067     1.040578     -0.030547     0.048027     0.018326
H      1.604695    -0.408376    -0.771312      0.007635     0.013032     0.016382
9
轮次1  Inner Iteration 2, |pred_grad|=0.261365
C     -0.077291     0.878618     0.003228      0.086967     0.054096     0.100904
C     -0.600592    -0.580602     0.124336     -0.092836    -0.063669     0.052931
C      0.897245    -0.281198     0.044875      0.036650    -0.081884    -0.119228
H     -0.573697     1.500837     0.741691     -0.055250    -0.011219    -0.027788
H     -0.239677     1.289040    -0.999151     -0.001746     0.000255    -0.018511
H     -1.035875    -0.959227    -0.790352      0.021340     0.019160    -0.017146
H     -0.954919    -0.784890     1.131154      0.015148     0.026069     0.009039
H      1.315461    -0.177870     1.038746     -0.028572     0.044998     0.014881
H      1.603931    -0.409679    -0.772950      0.015467     0.012449     0.006529
9
轮次1  Inner Iteration 3, |pred_grad|=0.235596
C     -0.085988     0.873208    -0.006863      0.087411     0.047491     0.086901
C     -0.591308    -0.574235     0.119043     -0.081502    -0.056849     0.047918
C      0.893580    -0.273009     0.056797      0.018819    -0.077994    -0.101524
H     -0.568172     1.501959     0.744470     -0.056003    -0.008463    -0.023547
H     -0.239502     1.289015    -0.997300     -0.001935    -0.001845    -0.013754
H     -1.038009    -0.961143    -0.788638      0.020255     0.019133    -0.016193
H     -0.956433    -0.787497     1.130251      0.015179     0.024501     0.009643
H      1.318318    -0.182369     1.037258     -0.026982     0.042443     0.012344
H      1.602384    -0.410924    -0.773603      0.019811     0.012126     0.000766
9
轮次1  Inner Iteration 4, |pred_grad|=0.216878
C     -0.094729     0.868459    -0.015553      0.087250     0.042535     0.075988
C     -0.583158    -0.568550     0.114251     -0.071930    -0.051088     0.043822
C      0.891698    -0.265210     0.066950      0.005762    -0.074913    -0.088763
H     -0.562572     1.502805     0.746825     -0.056137    -0.006685    -0.020651
H     -0.239309     1.289199    -0.995925     -0.002147    -0.003450    -0.010097
H     -1.040034    -0.963057    -0.787018      0.019383     0.019048    -0.015454
H     -0.957951    -0.789947     1.129286      0.015179     0.023169     0.010018
H      1.321016    -0.186614     1.036023     -0.025772     0.040271     0.010459
H      1.600403    -0.412137    -0.773680      0.021942     0.011974    -0.002344
9
轮次1  Inner Iteration 5, |pred_grad|=0.202923
C     -0.103454     0.864205    -0.023152      0.086743     0.038780     0.067372
C     -0.575965    -0.563441     0.109869     -0.063814    -0.046184     0.040435
C      0.891122    -0.257719     0.075826     -0.003827    -0.072436    -0.079543
H     -0.556958     1.503474     0.748890     -0.055899    -0.005576    -0.018698
H     -0.239094     1.289544    -0.994915     -0.002361    -0.004683    -0.007277
H     -1.041973    -0.964961    -0.785473      0.018705     0.018929    -0.014875
H     -0.959469    -0.792263     1.128285      0.015160     0.022039     0.010238
H      1.323594    -0.190641     1.034977     -0.024886     0.038409     0.009055
H      1.598209    -0.413334    -0.773445      0.022658     0.011933    -0.003720
9
初始采样  Outer Iteration 20, Energy=-117.0495279095, |grad|=0.147303
C     -0.112128     0.860327    -0.029889      0.058544    -0.010027    -0.004867
C     -0.569583    -0.558823     0.105825      0.007482     0.010022    -0.008825
C      0.891504    -0.250475     0.083780     -0.010298    -0.044830     0.029709
H     -0.551368     1.504031     0.750760     -0.052978     0.004751     0.002241
H     -0.238858     1.290012    -0.994188      0.003692    -0.012241     0.029132
H     -1.043843    -0.966854    -0.783985     -0.000299     0.017443    -0.018647
H     -0.960985    -0.794467     1.127261     -0.004022     0.006705     0.052777
H      1.326082    -0.194482     1.034072     -0.042667     0.026863    -0.046162
H      1.595943    -0.414527    -0.773073      0.040546     0.001314    -0.035357
9
轮次2  Outer Iteration 0, Energy=-117.0495279095, |grad|=0.147303
C     -0.112128     0.860327    -0.029889      0.058544    -0.010027    -0.004867
C     -0.569583    -0.558823     0.105825      0.007482     0.010022    -0.008825
C      0.891504    -0.250475     0.083780     -0.010298    -0.044830     0.029709
H     -0.551368     1.504031     0.750760     -0.052978     0.004751     0.002241
H     -0.238858     1.290012    -0.994188      0.003692    -0.012241     0.029132
H     -1.043843    -0.966854    -0.783985     -0.000299     0.017443    -0.018647
H     -0.960985    -0.794467     1.127261     -0.004022     0.006705     0.052777
H      1.326082    -0.194482     1.034072     -0.042667     0.026863    -0.046162
H      1.595943    -0.414527    -0.773073      0.040546     0.001314    -0.035357
9
轮次2  Outer Iteration 1, Energy=-117.0547511671, |grad|=0.108665
C     -0.115031     0.866378    -0.031155      0.054378     0.000845     0.012989
C     -0.571645    -0.562555     0.105361     -0.003594    -0.003415     0.002547
C      0.888936    -0.245655     0.086829     -0.008467    -0.047788    -0.009322
H     -0.533114     1.509708     0.747822     -0.045027    -0.000406    -0.004681
H     -0.245722     1.298597    -1.006958      0.000778    -0.004907     0.012803
H     -1.046319    -0.975806    -0.777716     -0.000752     0.017149    -0.012822
H     -0.958516    -0.807396     1.106188      0.002981     0.007931     0.031720
H      1.345766    -0.198774     1.051249     -0.024550     0.025763    -0.015371
H      1.572410    -0.409755    -0.761057      0.024253     0.004828    -0.017862
9
轮次2  Outer Iteration 2, Energy=-117.0580793073, |grad|=0.095212
C     -0.119262     0.872054    -0.033068      0.049925     0.009600     0.018371
C     -0.572782    -0.564069     0.104529     -0.009130    -0.011389     0.008882
C      0.886025    -0.237114     0.093422     -0.003977    -0.045662    -0.020791
H     -0.512861     1.518659     0.747448     -0.037804    -0.003240    -0.008112
H     -0.251035     1.301710    -1.015126     -0.000767    -0.002660     0.005968
H     -1.045346    -0.986837    -0.773086     -0.002102     0.015634    -0.008538
H     -0.961159    -0.821008     1.088804      0.007250     0.007789     0.016346
H      1.360160    -0.203043     1.058138     -0.016037     0.022974    -0.006536
H      1.553023    -0.405608    -0.750496      0.012642     0.006955    -0.005589
9
轮次2  Outer Iteration 3, Energy=-117.0605103892, |grad|=0.084852
C     -0.125129     0.876266    -0.035460      0.045419     0.012936     0.018359
C     -0.573561    -0.563557     0.102982     -0.009244    -0.013306     0.007860
C      0.883202    -0.227530     0.100157     -0.005466    -0.040510    -0.022247
H     -0.493956     1.527968     0.749377     -0.032067    -0.003805    -0.008106
H     -0.256243     1.302951    -1.021725     -0.001744    -0.001993     0.001891
H     -1.041898    -0.997367    -0.770736     -0.003505     0.013718    -0.005710
H     -0.967490    -0.833138     1.077329      0.008005     0.006067     0.009979
H      1.372116    -0.207327     1.063930     -0.009230     0.019732    -0.000390
H      1.539723    -0.403524    -0.745290      0.007833     0.007160    -0.001634
9
轮次2  Outer Iteration 4, Energy=-117.0624315508, |grad|=0.072673
C     -0.132041     0.879196    -0.037723      0.040146     0.013700     0.015792
C     -0.574043    -0.562050     0.101684     -0.007655    -0.012398     0.005491
C      0.880856    -0.217798     0.106336     -0.006039    -0.034331    -0.017796
H     -0.475845     1.536397     0.752116     -0.026917    -0.003609    -0.007113
H     -0.260936     1.303660    -1.025931     -0.002134    -0.002328     0.000352
H     -1.036079    -1.007976    -0.769126     -0.004582     0.011601    -0.003723
H     -0.974753    -0.842676     1.068240      0.007714     0.004298     0.006378
H      1.380409    -0.211180     1.066191     -0.005681     0.016377     0.000430
H      1.529195    -0.402831    -0.741226      0.005147     0.006690     0.000188
9
轮次2  Outer Iteration 5, Energy=-117.0639698018, |grad|=0.059898
C     -0.139839     0.881196    -0.039919      0.034205     0.012623     0.012789
C     -0.574566    -0.560215     0.100677     -0.005497    -0.010073     0.002650
C      0.878850    -0.208353     0.111367     -0.006848    -0.027826    -0.013026
H     -0.458348     1.543777     0.755294     -0.022113    -0.002970    -0.005643
H     -0.265412     1.305223    -1.028999     -0.002192    -0.002660    -0.000554
H     -1.028358    -1.018787    -0.768009     -0.005186     0.009433    -0.002290
H     -0.982628    -0.850125     1.060978      0.006761     0.002620     0.004549
H      1.386703    -0.214667     1.067926     -0.002960     0.013079     0.001044
H      1.520362    -0.403306    -0.738752      0.003829     0.005775     0.000482
9
轮次2  Outer Iteration 6, Energy=-117.0651786950, |grad|=0.047124
C     -0.148221     0.882555    -0.041968      0.027623     0.010773     0.009888
C     -0.575119    -0.558506     0.100135     -0.003591    -0.007469     0.000507
C      0.877092    -0.199393     0.115261     -0.006422    -0.021555    -0.008429
H     -0.441146     1.550113     0.758507     -0.017438    -0.002208    -0.004289
H     -0.269598     1.308117    -1.030796     -0.001945    -0.002845    -0.000845
H     -1.018662    -1.030093    -0.767065     -0.005233     0.007263    -0.001225
H     -0.990582    -0.855612     1.054862      0.005706     0.001358     0.003161
H      1.390695    -0.217668     1.068519     -0.001503     0.009924     0.000551
H      1.512305    -0.404770    -0.736893      0.002802     0.004760     0.000681
9
轮次2  Outer Iteration 7, Energy=-117.0660923491, |grad|=0.034764
C     -0.156957     0.883371    -0.043967      0.020687     0.008276     0.007378
C     -0.575785    -0.557108     0.100037     -0.002028    -0.004893    -0.001069
C      0.875511    -0.190993     0.117990     -0.005695    -0.015508    -0.005050
H     -0.424253     1.555216     0.761784     -0.012913    -0.001360    -0.003024
H     -0.273643     1.312503    -1.031721     -0.001484    -0.002697    -0.000985
H     -1.007149    -1.041714    -0.766348     -0.004734     0.005163    -0.000496
H     -0.998933    -0.859346     1.049914      0.004469     0.000438     0.002333
H      1.393127    -0.219999     1.068972     -0.000499     0.006945     0.000482
H      1.504846    -0.407188    -0.736097      0.002198     0.003637     0.000431
9
轮次2  Outer Iteration 8, Energy=-117.0667350191, |grad|=0.022947
C     -0.165717     0.883738    -0.045949      0.013593     0.005601     0.005295
C     -0.576468    -0.556144     0.100446     -0.001041    -0.002778    -0.001651
C      0.874116    -0.183256     0.119731     -0.004021    -0.009970    -0.002780
H     -0.407592     1.558766     0.765080     -0.008510    -0.000632    -0.002059
H     -0.277751     1.318389    -1.031681     -0.000878    -0.002248    -0.000884
H     -0.993766    -1.053486    -0.765787     -0.003710     0.003207    -0.000013
H     -1.007770    -0.861317     1.045646      0.003277     0.000001     0.001467
H      1.394266    -0.221242     1.068807     -0.000175     0.004221     0.000146
H      1.497447    -0.410706    -0.735729      0.001467     0.002597     0.000479
9
轮次2  Outer Iteration 9, Energy=-117.0671259219, |grad|=0.011940
C     -0.174092     0.883737    -0.048083      0.006763     0.002837     0.003416
C     -0.577086    -0.555636     0.101313     -0.000366    -0.001150    -0.001709
C      0.872948    -0.176309     0.120761     -0.002336    -0.004877    -0.001376
H     -0.391241     1.560333     0.768721     -0.004351    -0.000006    -0.001170
H     -0.282528     1.325773    -1.030856     -0.000293    -0.001486    -0.000706
H     -0.978500    -1.064917    -0.765657     -0.002267     0.001477     0.000194
H     -1.017904    -0.861682     1.041934      0.001910    -0.000119     0.000928
H      1.395131    -0.220544     1.068557     -0.000016     0.001849     0.000269
H      1.490037    -0.416013    -0.736127      0.000956     0.001476     0.000153
9
轮次2  Inner Iteration 1, |pred_grad|=0.011958
C     -0.174092     0.883737    -0.048083      0.006748     0.002839     0.003418
C     -0.577086    -0.555636     0.101313     -0.000367    -0.001150    -0.001708
C      0.872948    -0.176309     0.120761     -0.002474    -0.004882    -0.001376
H     -0.391241     1.560333     0.768721     -0.004345    -0.000007    -0.001171
H     -0.282528     1.325773    -1.030856     -0.000292    -0.001487    -0.000706
H     -0.978500    -1.064917    -0.765657     -0.002268     0.001471     0.000198
H     -1.017904    -0.861682     1.041934      0.001912    -0.000118     0.000925
H      1.395131    -0.220544     1.068557     -0.000018     0.001840     0.000266
H      1.490037    -0.416013    -0.736127      0.000953     0.001478     0.000159
9
轮次2  Inner Iteration 2, |pred_grad|=0.011772
C     -0.174530     0.883553    -0.048305      0.006628     0.002787     0.003385
C     -0.577063    -0.555561     0.101424     -0.000354    -0.001118    -0.001709
C      0.873108    -0.175993     0.120850     -0.002455    -0.004788    -0.001352
H     -0.390960     1.560333     0.768797     -0.004281     0.000005    -0.001155
H     -0.282509     1.325870    -1.030810     -0.000281    -0.001475    -0.000696
H     -0.978353    -1.065012    -0.765670     -0.002244     0.001438     0.000196
H     -1.018028    -0.861674     1.041874      0.001887    -0.000119     0.000932
H      1.395132    -0.220664     1.068540     -0.000026     0.001796     0.000265
H      1.489976    -0.416109    -0.736138      0.000957     0.001459     0.000144
9
轮次2  Inner Iteration 3, |pred_grad|=0.011593
C     -0.174953     0.883375    -0.048521      0.006513     0.002737     0.003354
C     -0.577040    -0.555490     0.101533     -0.000341    -0.001088    -0.001710
C      0.873265    -0.175687     0.120937     -0.002438    -0.004696    -0.001328
H     -0.390686     1.560333     0.768871     -0.004219     0.000016    -0.001140
H     -0.282491     1.325964    -1.030766     -0.000271    -0.001464    -0.000687
H     -0.978210    -1.065104    -0.765682     -0.002220     0.001406     0.000194
H     -1.018149    -0.861667     1.041814      0.001863    -0.000119     0.000938
H      1.395133    -0.220778     1.068523     -0.000033     0.001753     0.000264
H      1.489914    -0.416202    -0.736147      0.000961     0.001440     0.000130
9
轮次2  Inner Iteration 4, |pred_grad|=0.011420
C     -0.175363     0.883203    -0.048732      0.006400     0.002689     0.003324
C     -0.577018    -0.555421     0.101641     -0.000329    -0.001059    -0.001711
C      0.873418    -0.175391     0.121020     -0.002422    -0.004607    -0.001306
H     -0.390421     1.560332     0.768942     -0.004159     0.000027    -0.001125
H     -0.282474     1.326056    -1.030723     -0.000260    -0.001453    -0.000677
H     -0.978070    -1.065192    -0.765695     -0.002197     0.001375     0.000192
H     -1.018266    -0.861659     1.041755      0.001840    -0.000119     0.000944
H      1.395136    -0.220889     1.068507     -0.000040     0.001711     0.000263
H      1.489854    -0.416292    -0.736155      0.000964     0.001422     0.000116
9
轮次2  Inner Iteration 5, |pred_grad|=0.011252
C     -0.175760     0.883036    -0.048938      0.006291     0.002643     0.003295
C     -0.576998    -0.555356     0.101747     -0.000318    -0.001030    -0.001712
C      0.873569    -0.175105     0.121101     -0.002407    -0.004522    -0.001285
H     -0.390163     1.560330     0.769012     -0.004100     0.000038    -0.001111
H     -0.282457     1.326147    -1.030681     -0.000250    -0.001443    -0.000668
H     -0.977933    -1.065278    -0.765707     -0.002175     0.001346     0.000190
H     -1.018380    -0.861652     1.041697      0.001817    -0.000119     0.000950
H      1.395138    -0.220995     1.068490     -0.000047     0.001670     0.000263
H      1.489794    -0.416381    -0.736162      0.000967     0.001404     0.000103
9
初始采样  Outer Iteration 36, Energy=-117.0671618111, |grad|=0.008677
C     -0.176146     0.882874    -0.049140      0.004824     0.000941     0.000341
C     -0.576979    -0.555293     0.101852     -0.000284     0.000069    -0.000126
C      0.873716    -0.174828     0.121180     -0.000518    -0.003732     0.000205
H     -0.389911     1.560328     0.769080     -0.003986     0.000692    -0.000048
H     -0.282442     1.326235    -1.030640      0.000131    -0.001646     0.000377
H     -0.977800    -1.065360    -0.765718     -0.002621     0.001242    -0.000517
H     -1.018492    -0.861645     1.041638      0.001967    -0.000096     0.000414
H      1.395141    -0.221097     1.068474     -0.000494     0.001271    -0.000543
H      1.489735    -0.416467    -0.736168      0.000981     0.001258    -0.000103
9
轮次3  Outer Iteration 0, Energy=-117.0671618111, |grad|=0.008677
C     -0.176146     0.882874    -0.049140      0.004824     0.000941     0.000341
C     -0.576979    -0.555293     0.101852     -0.000284     0.000069    -0.000126
C      0.873716    -0.174828     0.121180     -0.000518    -0.003732     0.000205
H     -0.389911     1.560328     0.769080     -0.003986     0.000692    -0.000048