9
Iteration 0, Energy=-154.0791133506, |grad|=0.157325
C     -0.955964     0.056819     0.047139      0.052344     0.016252     0.009877
C      0.489892    -0.328419    -0.195930      0.014251     0.027987     0.000528
O      1.268139     0.332107     0.739696     -0.085885    -0.060028    -0.000872
H     -1.352851     0.724387    -0.723824     -0.002377    -0.001509     0.000819
H     -1.586672    -0.868323     0.015396     -0.008790    -0.033674    -0.008955
H     -1.077363     0.592524     1.011658     -0.005849     0.025669     0.017414
H      0.786045    -0.144784    -1.233537     -0.003865    -0.005645    -0.003381
H      0.582818    -1.430267    -0.046703     -0.009728    -0.029744    -0.002415
H      1.831611     1.053529     0.382976      0.049899     0.060692    -0.013015
9
Iteration 1, Energy=-154.0833144004, |grad|=0.098060
C     -1.007426     0.039685     0.034422     -0.012233    -0.016040     0.002443
C      0.486947    -0.293833    -0.144587     -0.005693     0.023210     0.013113
O      1.387266     0.325710     0.745482      0.050330     0.033738    -0.029822
H     -1.382166     0.712061    -0.744190     -0.005724    -0.003239    -0.003086
H     -1.643561    -0.845852    -0.005257     -0.006349     0.004766    -0.003041
H     -1.149587     0.532794     0.990765      0.004151     0.000102    -0.009400
H      0.786182    -0.082054    -1.174816      0.000432     0.000467     0.001460
H      0.633632    -1.366011    -0.006064      0.003747     0.001838    -0.000234
H      1.874367     0.965072     0.301113     -0.028662    -0.044843     0.028567
9
Iteration 2, Energy=-154.0856508374, |grad|=0.021381
C     -0.985626     0.046993     0.039375      0.001063    -0.004071     0.009143
C      0.489020    -0.321079    -0.166079      0.005128     0.006859     0.000244
O      1.327574     0.331621     0.753248     -0.008022    -0.007222     0.004754
H     -1.353475     0.727918    -0.733627     -0.002382    -0.002499    -0.001866
H     -1.623930    -0.838290     0.006903      0.000219     0.000109    -0.001927
H     -1.111950     0.543212     1.001789     -0.000441     0.005093    -0.002721
H      0.793832    -0.113308    -1.196098     -0.000966    -0.001394    -0.000735
H      0.621947    -1.396157    -0.025869     -0.000984    -0.001299    -0.003933
H      1.828262     1.006662     0.317228      0.006384     0.004425    -0.002959
9
Iteration 3, Energy=-154.0861121244, |grad|=0.013383
C     -0.982470     0.048850     0.032716     -0.000840     0.001020     0.001669
C      0.487670    -0.336356    -0.162704      0.002318    -0.003655     0.002054
O      1.321852     0.340142     0.745405     -0.001188     0.005467    -0.002375
H     -1.329232     0.758126    -0.723495     -0.001008    -0.001415    -0.002327
H     -1.634483    -0.825443    -0.006659      0.001187     0.000435     0.002853
H     -1.097516     0.512372     1.012415      0.000938     0.001698    -0.001665
H      0.801091    -0.122833    -1.188810      0.000518     0.003984     0.001249
H      0.628720    -1.407108    -0.007390      0.000552    -0.000595    -0.003581
H      1.790021     1.019823     0.295392     -0.002478    -0.006939     0.002123
9
Iteration 4, Energy=-154.0865808196, |grad|=0.010300
C     -0.982798     0.048349     0.030605     -0.001767     0.000239    -0.003156
C      0.486711    -0.338237    -0.158818     -0.001315    -0.002859     0.001878
O      1.333391     0.345929     0.735988     -0.001073     0.000382     0.002563
H     -1.316178     0.780723    -0.707861     -0.000134    -0.002124    -0.001696
H     -1.640686    -0.821532    -0.034821     -0.000616    -0.000613     0.004132
H     -1.104519     0.483494     1.023517      0.001143     0.001372    -0.000592
H      0.799341    -0.142704    -1.188922      0.000855     0.004564     0.001160
H      0.623804    -1.406254     0.016356      0.000019    -0.000592    -0.003132
H      1.786589     1.037804     0.280827      0.002888    -0.000368    -0.001157
9
Iteration 5, Energy=-154.0870707717, |grad|=0.011239
C     -0.979624     0.049664     0.031835     -0.000850     0.000042    -0.003311
C      0.487549    -0.340869    -0.157429     -0.001745    -0.001709    -0.000924
O      1.340503     0.350461     0.727125     -0.001360    -0.001093     0.005489
H     -1.303717     0.802210    -0.689313     -0.000073    -0.002907    -0.000880
H     -1.640140    -0.815863    -0.064227     -0.000776    -0.001090     0.003896
H     -1.111195     0.460823     1.034422      0.000351     0.002330    -0.000087
H      0.796624    -0.167393    -1.192700      0.000467     0.003585     0.000576
H      0.620833    -1.405553     0.037716     -0.000103    -0.000164    -0.002810
H      1.774821     1.054093     0.269443      0.004088     0.001006    -0.001949
9
Iteration 6, Energy=-154.0875718449, |grad|=0.011859
C     -0.974383     0.051520     0.035130      0.001471    -0.000521    -0.000520
C      0.489164    -0.344477    -0.155550     -0.000431    -0.000199    -0.002666
O      1.344957     0.354642     0.717692     -0.003611    -0.002187     0.006305
H     -1.290836     0.823294    -0.669293     -0.000859    -0.003098    -0.000545
H     -1.635609    -0.808801    -0.095289      0.000114    -0.001212     0.002659
H     -1.117240     0.441325     1.044957     -0.000549     0.003949    -0.000214
H      0.792821    -0.193762    -1.196086     -0.000161     0.002185     0.000144
H      0.618521    -1.406240     0.056984     -0.000207    -0.000069    -0.003052
H      1.758259     1.070072     0.258324      0.004234     0.001152    -0.002110
9
Iteration 7, Energy=-154.0880625169, |grad|=0.014287
C     -0.971046     0.052441     0.036679      0.001828    -0.000806    -0.000121
C      0.490301    -0.347757    -0.154083     -0.000384     0.000891    -0.005345
O      1.351425     0.359423     0.708418     -0.003224    -0.002418     0.008544
H     -1.276065     0.843631    -0.650280     -0.000627    -0.003819    -0.000103
H     -1.635999    -0.800179    -0.124010     -0.000148    -0.001321     0.002404
H     -1.122869     0.417941     1.054755     -0.001126     0.004500     0.000245
H      0.789895    -0.218352    -1.198949     -0.000485     0.001202    -0.000465
H      0.616970    -1.405496     0.077602     -0.000285     0.000388    -0.002781
H      1.743042     1.085920     0.246737      0.004450     0.001382    -0.002378
9
Iteration 8, Energy=-154.0882732854, |grad|=0.034671
C     -0.963323     0.051893     0.044300     -0.001449    -0.002604     0.011144
C      0.496243    -0.357108    -0.153076      0.009282     0.005791    -0.006984
O      1.341658     0.368622     0.702450     -0.000105     0.015787    -0.000138
H     -1.237578     0.863255    -0.636128      0.001221    -0.003047    -0.004503
H     -1.646578    -0.776701    -0.146548      0.000525     0.002340     0.002380
H     -1.112225     0.395887     1.067337     -0.000265     0.002779    -0.001976
H      0.788799    -0.244074    -1.204155     -0.001134    -0.000650    -0.003680
H      0.629017    -1.411527     0.089762      0.000324     0.000661    -0.003612
H      1.689642     1.097325     0.232928     -0.008400    -0.021058     0.007370
9
Iteration 9, Energy=-154.0884836242, |grad|=0.013220
C     -0.967499     0.052621     0.039921      0.000283    -0.001366     0.003829
C      0.492456    -0.353496    -0.151371      0.002603     0.002275    -0.005405
O      1.351830     0.364567     0.701158     -0.002642     0.001815     0.006402
H     -1.256450     0.860172    -0.636522     -0.000356    -0.003508    -0.001741
H     -1.640524    -0.787538    -0.146296     -0.000066    -0.000129     0.001977
H     -1.121114     0.399006     1.063320     -0.000470     0.004006    -0.000583
H      0.788215    -0.236899    -1.199342     -0.000667     0.000815    -0.001015
H      0.621202    -1.408709     0.091267      0.000193     0.000134    -0.003141
H      1.717539     1.097849     0.234736      0.001124    -0.004040    -0.000322
9
Iteration 10, Energy=-154.0886174486, |grad|=0.010542
C     -0.967599     0.053498     0.038455      0.000866    -0.000905     0.001788
C      0.491496    -0.353963    -0.149706      0.000750     0.000973    -0.003630
O      1.355250     0.365097     0.697275     -0.002687     0.000700     0.005136
H     -1.257935     0.865664    -0.631863     -0.001003    -0.003053    -0.001232
H     -1.637879    -0.788177    -0.152550      0.000183    -0.000886     0.002158
H     -1.123482     0.393121     1.064028     -0.000331     0.004042    -0.000482
H      0.788602    -0.239764    -1.197228     -0.000227     0.001676    -0.000220
H      0.618168    -1.408611     0.097010      0.000083    -0.000184    -0.003037
H      1.719034     1.100707     0.231449      0.002367    -0.002363    -0.000480
9
Iteration 11, Energy=-154.0887623753, |grad|=0.010155
C     -0.967072     0.053585     0.038143      0.000736    -0.001044     0.001240
C      0.491338    -0.355648    -0.147557      0.000381     0.000784    -0.001975
O      1.357031     0.366204     0.694069     -0.003400    -0.000902     0.004878
H     -1.253435     0.871476    -0.627457     -0.001130    -0.002665    -0.001571
H     -1.638782    -0.785378    -0.159802      0.000081    -0.000925     0.002295
H     -1.123652     0.385681     1.065900      0.000143     0.003668    -0.000628
H      0.788485    -0.243595    -1.195122     -0.000046     0.002373     0.000288
H      0.617629    -1.409699     0.102430      0.000076    -0.000449    -0.003105
H      1.714112     1.104947     0.226266      0.003159    -0.000840    -0.001421
9
Iteration 12, Energy=-154.0889023150, |grad|=0.009333
C     -0.966258     0.053877     0.038029      0.000289    -0.000906     0.001186
C      0.491502    -0.357952    -0.145936      0.000464     0.000077    -0.000554
O      1.357689     0.367972     0.690863     -0.003382    -0.000023     0.003510
H     -1.247923     0.877604    -0.623087     -0.001174    -0.002139    -0.002026
H     -1.639823    -0.781945    -0.166183      0.000164    -0.000874     0.002562
H     -1.122981     0.378531     1.067863      0.000531     0.003209    -0.000845
H      0.788850    -0.248265    -1.193772      0.000210     0.002942     0.000457
H      0.617583    -1.411453     0.107202      0.000034    -0.000846    -0.003309
H      1.707015     1.109203     0.221890      0.002863    -0.001439    -0.000981
9
Iteration 13, Energy=-154.0890373623, |grad|=0.009334
C     -0.965254     0.054089     0.038155      0.000092    -0.000684     0.000827
C      0.491791    -0.359898    -0.144596      0.000593    -0.000298     0.000149
O      1.358719     0.369279     0.688106     -0.003512     0.000037     0.003277
H     -1.242079     0.883093    -0.618398     -0.001025    -0.002095    -0.002108
H     -1.640709    -0.778481    -0.172890      0.000121    -0.000849     0.002711
H     -1.123240     0.371920     1.069925      0.000679     0.002998    -0.000788
H      0.788531    -0.253217    -1.193000      0.000264     0.003255     0.000489
H      0.617909    -1.412456     0.112022      0.000064    -0.000816    -0.003421
H      1.699987     1.113242     0.217545      0.002724    -0.001549    -0.001135
9
Iteration 14, Energy=-154.0891704681, |grad|=0.009320
C     -0.964270     0.054331     0.038349     -0.000026    -0.000564     0.000692
C      0.492087    -0.361682    -0.143676      0.000557    -0.000777     0.000383
O      1.360044     0.370650     0.685254     -0.003385     0.000493     0.003134
H     -1.237028     0.888382    -0.613595     -0.000970    -0.001995    -0.002161
H     -1.641211    -0.775264    -0.179484      0.000112    -0.000837     0.002804
H     -1.123876     0.365672     1.071844      0.000716     0.002877    -0.000771
H      0.788050    -0.258744    -1.192760      0.000291     0.003392     0.000456
H      0.617949    -1.413320     0.116792      0.000036    -0.000917    -0.003508
H      1.693909     1.117548     0.214145      0.002670    -0.001672    -0.001029
9
Iteration 1, Energy=-154.0901885288, |grad|=0.010221
C     -0.957178     0.056788     0.039789     -0.001632     0.000912    -0.000246
C      0.495470    -0.373677    -0.137391      0.002084    -0.003379     0.001004
O      1.371829     0.381023     0.661764     -0.002802     0.002681     0.002304
H     -1.203252     0.928338    -0.572499     -0.001305    -0.001797    -0.001737
H     -1.643226    -0.748721    -0.232983     -0.000115    -0.000563     0.002889
H     -1.131185     0.316418     1.085192      0.000870     0.002241    -0.000719
H      0.785342    -0.304564    -1.190984      0.000399     0.003503     0.000813
H      0.618298    -1.417021     0.155623     -0.000009    -0.001438    -0.003810
H      1.649555     1.148989     0.188358      0.002509    -0.002159    -0.000499
9
Iteration 2, Energy=-154.0911043673, |grad|=0.008797
C     -0.949310     0.058333     0.043303     -0.000717    -0.001078     0.000702
C      0.496883    -0.379975    -0.133847      0.000645     0.001826    -0.001069
O      1.386308     0.385115     0.637215     -0.003237    -0.001428     0.004378
H     -1.166449     0.961685    -0.533260      0.000351    -0.001520    -0.001894
H     -1.638038    -0.724827    -0.283858     -0.000085    -0.001234     0.002175
H     -1.141396     0.271779     1.096460      0.000658     0.002117     0.000028
H      0.776362    -0.348382    -1.192808      0.000100     0.002514    -0.000083
H      0.616919    -1.412149     0.195455      0.000144     0.000039    -0.002045
H      1.604377     1.175993     0.168210      0.002140    -0.001236    -0.002191
9
Iteration 3, Energy=-154.0918535589, |grad|=0.008854
C     -0.938125     0.062133     0.045349      0.001616     0.000716     0.000074
C      0.500551    -0.394928    -0.128557     -0.000510    -0.003961     0.002120
O      1.400648     0.391983     0.607515     -0.003447     0.002274     0.001175
H     -1.134121     0.993867    -0.493707     -0.001348    -0.000549    -0.001222
H     -1.632495    -0.693771    -0.329947      0.000620    -0.000848     0.001338
H     -1.147242     0.233274     1.102835      0.000681     0.001831    -0.000288
H      0.768935    -0.395129    -1.191138     -0.000112     0.002685     0.000118
H      0.618155    -1.418702     0.228468     -0.000165    -0.001787    -0.002842
H      1.549348     1.208844     0.156052      0.002665    -0.000361    -0.000474
9
Iteration 4, Energy=-154.0923821588, |grad|=0.006453
C     -0.933223     0.063183     0.046428     -0.001469    -0.001837    -0.000789
C      0.505004    -0.399432    -0.126782     -0.000449     0.003321     0.000497
O      1.423128     0.393551     0.577877      0.001208     0.000482     0.001687
H     -1.105215     1.019471    -0.456345     -0.000161    -0.000848    -0.000833
H     -1.635406    -0.663497    -0.370374     -0.001522     0.000055     0.001356
H     -1.158589     0.192543     1.106497      0.000369     0.000648    -0.000423
H      0.765933    -0.438032    -1.190802      0.000756     0.001062     0.000184
H      0.622744    -1.409964     0.264436      0.000816     0.000121    -0.001040
H      1.501278     1.229750     0.145936      0.000452    -0.003005    -0.000640
9
Iteration 5, Energy=-154.0926150452, |grad|=0.011451
C     -0.916979     0.068815     0.050620      0.001853     0.002830     0.003120
C      0.509798    -0.416176    -0.131420      0.002758    -0.001937    -0.004950
O      1.425138     0.399606     0.546843     -0.005337    -0.003167     0.003714
H     -1.059225     1.046105    -0.420744      0.001002    -0.000219    -0.000448
H     -1.620370    -0.631840    -0.406141      0.001768    -0.001294     0.000264
H     -1.155789     0.163672     1.112167     -0.000665     0.000523     0.000957
H      0.755174    -0.488763    -1.197856     -0.000562    -0.000108    -0.000861
H      0.622055    -1.412697     0.295021     -0.000720     0.000642     0.000317
H      1.425852     1.258850     0.148380     -0.000097     0.002730    -0.002115
9
Iteration 6, Energy=-154.0926773582, |grad|=0.007819
C     -0.917952     0.067389     0.049643     -0.000469    -0.002227    -0.002506
C      0.509985    -0.416340    -0.121715     -0.002593     0.000300     0.004698
O      1.452567     0.402496     0.517806      0.002354    -0.000784    -0.001269
H     -1.052781     1.057451    -0.397827      0.000266     0.000357    -0.000052
H     -1.618572    -0.616481    -0.436323     -0.000164    -0.000180    -0.000823
H     -1.169894     0.137649     1.109603      0.001414    -0.000117     0.000144
H      0.741507    -0.509975    -1.189321     -0.000948     0.000647     0.000234
H      0.624276    -1.407712     0.317243     -0.000633    -0.000634    -0.000558
H      1.416519     1.273096     0.147760      0.000774     0.002638     0.000133
9
Iteration 7, Energy=-154.0927104308, |grad|=0.004301
C     -0.917507     0.069072     0.050288      0.000243     0.000407     0.000530
C      0.511520    -0.417042    -0.126370     -0.000346     0.000221    -0.000469
O      1.444861     0.401242     0.525005     -0.000158     0.001697    -0.001432
H     -1.058277     1.056754    -0.400077     -0.000835     0.000002     0.000220
H     -1.622744    -0.615216    -0.427537     -0.000024     0.000450     0.000179
H     -1.169819     0.143577     1.109701     -0.000611     0.000221    -0.000374
H      0.753293    -0.508152    -1.192059      0.000928    -0.000195     0.000117
H      0.629227    -1.408084     0.312420      0.000982     0.000033     0.000171
H      1.415102     1.265422     0.145498     -0.000179    -0.002836     0.001059
9
Iteration 8, Energy=-154.0927166341, |grad|=0.002128
C     -0.917462     0.067822     0.049824      0.000048    -0.000090     0.000156
C      0.511480    -0.416473    -0.126264      0.000902    -0.000024    -0.000646
O      1.441587     0.402915     0.529713      0.000028    -0.000299     0.001136
H     -1.054861     1.054583    -0.403315      0.000331    -0.000113    -0.000117
H     -1.623151    -0.618322    -0.425208     -0.000217    -0.000028     0.000193
H     -1.165956     0.143910     1.110177     -0.000032    -0.000155     0.000030
H      0.751139    -0.504655    -1.192606     -0.000353    -0.000154    -0.000161
H      0.624610    -1.408897     0.310164     -0.000638    -0.000017    -0.000075
H      1.418268     1.266690     0.144384     -0.000069     0.000881    -0.000516
9
Iteration 9, Energy=-154.0927189881, |grad|=0.000924
C     -0.917877     0.068356     0.050053     -0.000089     0.000184    -0.000146
C      0.510691    -0.416693    -0.125424     -0.000235    -0.000109     0.000277
O      1.443143     0.402022     0.527067     -0.000166    -0.000565    -0.000093
H     -1.055485     1.055865    -0.401602      0.000043     0.000066    -0.000019
H     -1.621596    -0.617735    -0.427898      0.000125    -0.000135    -0.000100
H     -1.167580     0.143066     1.110265      0.000150    -0.000013     0.000107
H      0.750167    -0.505372    -1.191718      0.000010     0.000179     0.000076
H      0.626466    -1.408426     0.311952      0.000166     0.000058     0.000049
H      1.417725     1.266491     0.144174     -0.000004     0.000335    -0.000151
9
Iteration 1, Energy=-154.0927187390, |grad|=0.001232
C     -0.917628     0.068012     0.050107      0.000030    -0.000310     0.000217
C      0.511344    -0.416309    -0.126103      0.000232     0.000246    -0.000472
O      1.443534     0.402542     0.527449      0.000230     0.000707     0.000169
H     -1.055899     1.055257    -0.401757      0.000048    -0.000106     0.000019
H     -1.622417    -0.617526    -0.426936     -0.000109     0.000117     0.000085
H     -1.167912     0.143321     1.110060     -0.000175     0.000043    -0.000074
H      0.750763    -0.506378    -1.192394     -0.000052    -0.000270    -0.000111
H      0.625742    -1.408182     0.311363     -0.000239    -0.000009    -0.000046
H      1.418128     1.266835     0.145081      0.000035    -0.000420     0.000212
9
Iteration 2, Energy=-154.0927193272, |grad|=0.000202
C     -0.917639     0.068270     0.050033      0.000045     0.000058    -0.000011
C      0.511105    -0.416725    -0.125645      0.000047    -0.000104     0.000065
O      1.443285     0.402328     0.527169     -0.000027     0.000073    -0.000045
H     -1.055721     1.055740    -0.401518     -0.000057     0.000004     0.000011
H     -1.622138    -0.617290    -0.427448     -0.000012     0.000030     0.000023
H     -1.167717     0.143094     1.110080     -0.000015    -0.000007    -0.000035
H      0.750703    -0.505913    -1.191914      0.000016     0.000019     0.000003
H      0.626306    -1.408578     0.311699      0.000006    -0.000040    -0.000022
H      1.417471     1.266647     0.144413     -0.000003    -0.000032     0.000012
9
Iteration 3, Energy=-154.0927193307, |grad|=0.000205
C     -0.917787     0.068176     0.050054     -0.000040    -0.000081    -0.000001
C      0.511004    -0.416481    -0.125712     -0.000035     0.000124    -0.000050
O      1.443422     0.402241     0.527213      0.000074    -0.000038     0.000048
H     -1.055699     1.055603    -0.401627      0.000045    -0.000010    -0.000009
H     -1.622089    -0.617571    -0.427489     -0.000022    -0.000007    -0.000005
H     -1.167782     0.143060     1.110145      0.000002    -0.000002     0.000014
H      0.750497    -0.505822    -1.191994     -0.000007    -0.000019    -0.000009
H      0.626159    -1.408253     0.311765     -0.000011     0.000035     0.000021
H      1.417929     1.266620     0.144515     -0.000006    -0.000002    -0.000010
9
Iteration 4, Energy=-154.0927193485, |grad|=0.000072
C     -0.917687     0.068245     0.050065      0.000010     0.000018     0.000022
C      0.511028    -0.416629    -0.125725      0.000007    -0.000024    -0.000037
O      1.443255     0.402281     0.527201     -0.000032     0.000003     0.000011
H     -1.055631     1.055676    -0.401607      0.000008     0.000002    -0.000001
H     -1.621997    -0.617489    -0.427466      0.000019    -0.000011    -0.000006
H     -1.167670     0.143153     1.110154     -0.000003     0.000005     0.000011
H      0.750534    -0.505908    -1.192005     -0.000007    -0.000008    -0.000003
H      0.626199    -1.408430     0.311706     -0.000006     0.000004     0.000001
H      1.417624     1.266674     0.144547      0.000006     0.000013     0.000002
