14
Iteration 0, Energy=-156.9583792877, |grad|=2.142834
C      2.096986     0.199975     0.470875      0.158256    -0.139532     0.330066
C      0.366498     0.446752     0.192613     -0.327529    -0.318365    -0.011432
C     -0.284023    -0.731506    -0.105887      0.400806    -0.837805    -1.146582
C     -1.923584    -0.164116    -0.191850     -0.117031    -0.151203    -0.062574
H      2.543828     1.199897     0.583472     -0.002089     0.028466    -0.021986
H      2.234327    -0.088631    -0.695808     -0.041971     0.009491    -0.125486
H      2.097623    -0.481292     1.189073     -0.040581     0.122059    -0.119329
H      0.296077     1.142927    -0.751180     -0.019828     0.035541    -0.068938
H      0.365452     1.290602     1.133094      0.083441     0.124007     0.086632
H     -0.459634    -1.183996     0.879602     -0.029841     0.045980     0.014253
H     -0.262448    -1.241963    -0.646219     -0.118635     0.912432     1.026874
H     -2.433515     0.051899     0.803017     -0.023731     0.058778     0.035778
H     -1.688241     1.002476    -0.375666      0.051009     0.104360     0.036473
H     -2.516774    -0.687364    -0.900452      0.027724     0.005791     0.026251
14
Iteration 1, Energy=-157.1095109318, |grad|=1.021433
C      2.098296     0.206348     0.467640      0.154651    -0.109922     0.288736
C      0.378946     0.477269     0.200573     -0.307314    -0.272135    -0.003393
C     -0.297043    -0.714207    -0.089359      0.343619    -0.250399    -0.479302
C     -1.933723    -0.161879    -0.183459     -0.112884    -0.143736    -0.053305
H      2.562510     1.195583     0.579294     -0.002726     0.024332    -0.023270
H      2.255471    -0.090297    -0.681010     -0.036509     0.010294    -0.116710
H      2.104234    -0.487358     1.200256     -0.038857     0.092090    -0.089245
H      0.318795     1.168267    -0.736793     -0.015472     0.034032    -0.062726
H      0.373120     1.308056     1.130159      0.081175     0.118263     0.080577
H     -0.471677    -1.165395     0.897074     -0.032091     0.046451     0.014361
H     -0.267881    -1.327458    -0.738222     -0.082545     0.294127     0.356590
H     -2.439984     0.046996     0.807954     -0.020504     0.056723     0.030633
H     -1.723859     0.995578    -0.377402      0.044960     0.096520     0.036072
H     -2.524634    -0.695843    -0.892019      0.024498     0.003360     0.020982
14
Iteration 2, Energy=-157.1810014128, |grad|=0.734765
C      2.093557     0.206131     0.441514      0.140425    -0.061978     0.198605
C      0.410443     0.536549     0.206187     -0.255572    -0.164395     0.005182
C     -0.327676    -0.678437    -0.065192      0.292822    -0.178223    -0.332266
C     -1.953269    -0.169627    -0.181584     -0.102535    -0.120242    -0.036572
H      2.600443     1.166233     0.564001     -0.004317     0.014456    -0.025595
H      2.312095    -0.103927    -0.655570     -0.021726     0.013446    -0.087106
H      2.119524    -0.520062     1.195957     -0.032946     0.040222    -0.038237
H      0.376931     1.221002    -0.707064     -0.004892     0.027769    -0.042590
H      0.375711     1.318448     1.113579      0.071226     0.096996     0.062556
H     -0.496028    -1.139339     0.918214     -0.036866     0.039641     0.015358
H     -0.276548    -1.322005    -0.759220     -0.078691     0.169642     0.217424
H     -2.450541     0.005199     0.803472     -0.011378     0.050085     0.018406
H     -1.817751     0.962038    -0.395024      0.028882     0.072105     0.035211
H     -2.534319    -0.726543    -0.894584      0.015569     0.000476     0.009625
14
Iteration 3, Energy=-157.2306363458, |grad|=0.518586
C      2.060831     0.209299     0.417258      0.120740    -0.050610     0.140433
C      0.427618     0.562489     0.208322     -0.223958    -0.097472     0.012457
C     -0.349225    -0.654949    -0.038415      0.251802    -0.093471    -0.198230
C     -1.938487    -0.156271    -0.173690     -0.087886    -0.088430    -0.024662
H      2.591504     1.152460     0.554473     -0.005303     0.010095    -0.025019
H      2.323760    -0.112230    -0.631197     -0.016301     0.017368    -0.053685
H      2.114600    -0.529474     1.176331     -0.028386     0.024503    -0.025451
H      0.405175     1.235012    -0.686094      0.002083     0.016302    -0.022423
H      0.347205     1.291631     1.089513      0.061488     0.066477     0.034708
H     -0.501899    -1.126490     0.939933     -0.037502     0.036557     0.013436
H     -0.260676    -1.331315    -0.781854     -0.066026     0.070154     0.101396
H     -2.428304    -0.009137     0.806640     -0.002945     0.043074     0.009349
H     -1.843133     0.945563    -0.406291      0.019900     0.045283     0.034464
H     -2.516398    -0.720928    -0.890243      0.012292     0.000170     0.003228
14
Iteration 4, Energy=-157.2633565795, |grad|=0.368205
C      2.034936     0.209369     0.393001      0.092014    -0.034751     0.088429
C      0.455814     0.588644     0.210282     -0.174600    -0.042927     0.021385
C     -0.376809    -0.622681    -0.011164      0.199047    -0.057157    -0.120340
C     -1.933864    -0.149269    -0.168841     -0.070358    -0.067540    -0.018980
H      2.595733     1.131611     0.550142     -0.004524     0.007404    -0.022501
H      2.339678    -0.129198    -0.618284     -0.010178     0.017736    -0.029971
H      2.115096    -0.543425     1.156627     -0.021946     0.009222    -0.012554
H      0.442390     1.254983    -0.673514      0.008593     0.008763    -0.010539
H      0.325736     1.274023     1.078638      0.049446     0.038971     0.013225
H     -0.505756    -1.109678     0.961780     -0.036602     0.031789     0.012449
H     -0.241574    -1.312704    -0.787655     -0.053050     0.026446     0.044161
H     -2.426059    -0.038047     0.808139      0.001749     0.034900     0.005833
H     -1.892251     0.931497    -0.427177      0.011467     0.025733     0.030523
H     -2.500499    -0.729466    -0.887287      0.008941     0.001413    -0.001119
14
Iteration 5, Energy=-157.2849693395, |grad|=0.245369
C      2.003867     0.209130     0.370302      0.056106    -0.022351     0.051099
C      0.475360     0.600755     0.209538     -0.121399    -0.015725     0.020650
C     -0.400847    -0.600868     0.014538      0.141939    -0.034564    -0.068315
C     -1.918946    -0.132919    -0.161868     -0.048581    -0.047252    -0.012185
H      2.587920     1.113241     0.549184     -0.003902     0.005436    -0.017927
H      2.341013    -0.149279    -0.613142     -0.005287     0.014912    -0.014958
H      2.114101    -0.550650     1.135746     -0.014668     0.001475    -0.006604
H      0.451082     1.261078    -0.669557      0.010914     0.003101    -0.004176
H      0.286416     1.253462     1.074624      0.034332     0.021636     0.003998
H     -0.489985    -1.107417     0.980792     -0.030564     0.026310     0.011315
H     -0.207376    -1.293660    -0.782435     -0.036371     0.004401     0.012870
H     -2.421759    -0.054829     0.808063      0.004564     0.026027     0.003427
H     -1.911512     0.931523    -0.448619      0.005812     0.014483     0.024353
H     -2.476762    -0.723909    -0.882480      0.007106     0.002109    -0.003545
14
Iteration 6, Energy=-157.2981317819, |grad|=0.136149
C      1.991963     0.206262     0.353090      0.025063    -0.010277     0.028946
C      0.500400     0.611652     0.208378     -0.061471    -0.010082     0.015050
C     -0.428739    -0.569153     0.037039      0.079417    -0.014436    -0.036441
C     -1.920147    -0.121117    -0.156608     -0.028431    -0.034812    -0.008519
H      2.604224     1.088043     0.555217     -0.000743     0.003596    -0.011360
H      2.347072    -0.177306    -0.611549     -0.001283     0.009674    -0.008357
H      2.121619    -0.554351     1.120605     -0.007704    -0.000345    -0.004648
H      0.451339     1.268707    -0.669453      0.008132    -0.000010    -0.003115
H      0.261934     1.239803     1.075668      0.018229     0.010725     0.002736
H     -0.464027    -1.101040     0.992893     -0.020543     0.020267     0.010258
H     -0.176353    -1.252443    -0.770380     -0.020019    -0.002133    -0.000180
H     -2.444227    -0.082085     0.802977      0.003338     0.016211     0.003061
H     -1.949062     0.928926    -0.477105      0.001987     0.008471     0.016165
H     -2.463425    -0.730239    -0.876088      0.004029     0.003150    -0.003595
14
Iteration 7, Energy=-157.3042024517, |grad|=0.052071
C      1.967134     0.198799     0.333886      0.003604    -0.008997     0.008879
C      0.502142     0.630536     0.204440     -0.024336     0.004370     0.006212
C     -0.439548    -0.557104     0.060944      0.029617    -0.013813    -0.014612
C     -1.900889    -0.098175    -0.145770     -0.006051    -0.008781    -0.001830
H      2.601224     1.059624     0.556261     -0.002737     0.001866    -0.004365
H      2.326756    -0.219855    -0.611677      0.000905     0.003905    -0.002982
H      2.099214    -0.556014     1.112936     -0.001463    -0.002431    -0.001610
H      0.408724     1.287528    -0.668516      0.001338     0.001434    -0.001316
H      0.228182     1.241700     1.071805      0.005294     0.004922    -0.000084
H     -0.405451    -1.129920     0.993606     -0.006477     0.008918     0.006816
H     -0.131981    -1.221067    -0.752078     -0.005058    -0.004677    -0.000882
H     -2.453456    -0.093520     0.796785      0.001583     0.005737     0.000903
H     -1.939758     0.936963    -0.503376     -0.000555     0.005656     0.007322
H     -2.429722    -0.723836    -0.864559      0.004335     0.001892    -0.002452
14
Iteration 8, Energy=-157.3048009350, |grad|=0.044010
C      2.001123     0.208709     0.335928      0.004266     0.013961     0.002957
C      0.539864     0.625459     0.201737      0.014490    -0.021667    -0.002197
C     -0.475505    -0.511519     0.058949     -0.016876     0.020817    -0.001454
C     -1.942160    -0.100761    -0.141382     -0.003685    -0.010150    -0.001518
H      2.658089     1.051774     0.566752      0.005994    -0.001870     0.002165
H      2.358541    -0.247053    -0.591251     -0.002043     0.001684    -0.000482
H      2.122385    -0.526518     1.133480     -0.002142     0.002347    -0.002622
H      0.441375     1.286699    -0.664751     -0.000025    -0.003928    -0.000057
H      0.265374     1.223665     1.077243      0.001343    -0.003351     0.000369
H     -0.403386    -1.132277     0.956737      0.000127     0.005813     0.001132
H     -0.153361    -1.153054    -0.768716      0.001739    -0.000847     0.001398
H     -2.497381    -0.118632     0.799427     -0.001591    -0.003959    -0.000559
H     -2.012684     0.910729    -0.546845      0.002246    -0.001594     0.002043
H     -2.469702    -0.761560    -0.832622     -0.003843     0.002745    -0.001174
14
Iteration 9, Energy=-157.3057694836, |grad|=0.011285
C      1.976928     0.198215     0.331638      0.000765    -0.000866     0.002301
C      0.520198     0.639989     0.203525     -0.001405    -0.001720    -0.000450
C     -0.454475    -0.528788     0.063346      0.004001    -0.000060    -0.003958
C     -1.917004    -0.097118    -0.140940     -0.001529    -0.003604    -0.001248
H      2.628387     1.045185     0.558934     -0.000217     0.000154     0.000087
H      2.335035    -0.251963    -0.599262      0.000838     0.000958    -0.001244
H      2.098960    -0.542790     1.125371     -0.000523    -0.000421    -0.001721
H      0.419658     1.301654    -0.664143     -0.000167     0.000288    -0.000536
H      0.243775     1.243186     1.076791      0.000997     0.001694     0.000788
H     -0.389776    -1.141785     0.968189     -0.001601     0.003744     0.002770
H     -0.135286    -1.172045    -0.762021     -0.001269    -0.002389     0.001895
H     -2.473006    -0.106850     0.799725     -0.000384    -0.001027     0.000201
H     -1.980591     0.920521    -0.536139     -0.000211     0.001487     0.003067
H     -2.440232    -0.751751    -0.840332      0.000706     0.001760    -0.001951
14
Iteration 10, Energy=-157.3062355802, |grad|=0.007008
C      1.975386     0.201020     0.335916      0.000252     0.000997    -0.000455
C      0.518883     0.637715     0.204701      0.000010    -0.000304    -0.002007
C     -0.454941    -0.531646     0.055798     -0.000238    -0.000544    -0.000633
C     -1.914835    -0.092333    -0.137020     -0.000230     0.000648    -0.000291
H      2.628002     1.049512     0.554148      0.000187    -0.000281     0.000947
H      2.330975    -0.263457    -0.587650     -0.000234     0.001062    -0.000131
H      2.098622    -0.528284     1.141772     -0.000236    -0.000796    -0.000358
H      0.415246     1.302267    -0.659485     -0.000601    -0.000421    -0.000055
H      0.238378     1.232643     1.080695      0.001269    -0.000015    -0.000322
H     -0.378046    -1.166878     0.944076      0.000300     0.002203     0.001525
H     -0.137588    -1.157228    -0.784470     -0.000234    -0.002537     0.002061
H     -2.461037    -0.080329     0.808899     -0.000801    -0.002356    -0.000683
H     -1.975729     0.913955    -0.559264     -0.000149     0.000851     0.002311
H     -2.450745    -0.761297    -0.813429      0.000706     0.001494    -0.001909
14
Iteration 11, Energy=-157.3066546404, |grad|=0.007644
C      1.973465     0.199184     0.340165     -0.000569    -0.000048    -0.002030
C      0.518912     0.640118     0.206845      0.002005     0.000956    -0.001892
C     -0.453743    -0.528383     0.045521     -0.001577     0.000724     0.000628
C     -1.914124    -0.092325    -0.134880      0.000401     0.001090    -0.000174
H      2.627321     1.048124     0.552746     -0.000255    -0.000199     0.001160
H      2.330212    -0.275311    -0.577882      0.000402     0.000512     0.000178
H      2.095275    -0.522670     1.153079      0.000091    -0.000728    -0.000187
H      0.417161     1.309797    -0.653397     -0.000943    -0.000651     0.000074
H      0.231212     1.228037     1.085420     -0.000099    -0.000211    -0.000387
H     -0.370467    -1.179036     0.921902      0.000552     0.002021     0.001143
H     -0.137195    -1.138588    -0.806562      0.000137    -0.002363     0.001993
H     -2.444221    -0.056412     0.819665     -0.000804    -0.003104    -0.000566
H     -1.979278     0.901912    -0.583886      0.000261     0.000631     0.002069
H     -2.461957    -0.778789    -0.784052      0.000398     0.001371    -0.002009
14
Iteration 12, Energy=-157.3070814226, |grad|=0.007880
C      1.972088     0.198978     0.345686     -0.000859    -0.000159    -0.001947
C      0.518015     0.639936     0.208952      0.002004     0.001116    -0.002224
C     -0.452671    -0.528208     0.034541     -0.001937     0.000474     0.001224
C     -1.912967    -0.091933    -0.133503      0.000921     0.001323    -0.000345
H      2.626237     1.049111     0.552591     -0.000282    -0.000158     0.001067
H      2.328945    -0.281966    -0.569015      0.000415     0.000356     0.000228
H      2.093814    -0.517487     1.163366      0.000241    -0.000695    -0.000148
H      0.419799     1.316246    -0.646600     -0.000817    -0.000473     0.000049
H      0.225803     1.221047     1.090737     -0.000258    -0.000152    -0.000305
H     -0.365500    -1.192263     0.900622      0.000588     0.001905     0.001265
H     -0.139284    -1.124195    -0.829065      0.000101    -0.002369     0.001584
H     -2.425360    -0.027539     0.829384     -0.000703    -0.003199    -0.000293
H     -1.983229     0.889366    -0.609617      0.000068     0.000747     0.002031
H     -2.473117    -0.795434    -0.753393      0.000519     0.001284    -0.002187
14
Iteration 13, Energy=-157.3075115287, |grad|=0.006676
C      1.971577     0.199316     0.351925     -0.000107    -0.000280    -0.000315
C      0.516552     0.638544     0.211611      0.000124     0.000364    -0.002133
C     -0.451182    -0.529358     0.022620     -0.000249    -0.000123     0.000342
C     -1.912098    -0.092426    -0.132737      0.000597     0.000191    -0.000632
H      2.624984     1.051364     0.553400     -0.000165    -0.000039     0.000663
H      2.328171    -0.285039    -0.561543      0.000321     0.000331    -0.000307
H      2.093029    -0.513209     1.172523      0.000008    -0.000396    -0.000434
H      0.423430     1.322387    -0.639047     -0.000382    -0.000040    -0.000313
H      0.221823     1.213410     1.097242      0.000246     0.000482     0.000255
H     -0.362770    -1.204702     0.880197      0.000176     0.002032     0.001832
H     -0.143316    -1.112580    -0.851817     -0.000556    -0.002525     0.001034
H     -2.405784     0.004554     0.837584     -0.000730    -0.002617     0.000130
H     -1.987135     0.875541    -0.635659     -0.000083     0.001351     0.002197
H     -2.484711    -0.812142    -0.721614      0.000801     0.001270    -0.002320
14
Iteration 14, Energy=-157.3079265502, |grad|=0.006599
C      1.970313     0.199194     0.356526     -0.000531    -0.000170    -0.000754
C      0.515855     0.637913     0.214378      0.000772     0.000660    -0.002035
C     -0.450247    -0.528985     0.012318     -0.000650     0.000120     0.000554
C     -1.911112    -0.092093    -0.131889      0.000565     0.000517    -0.000304
H      2.623420     1.051946     0.555801     -0.000224    -0.000048     0.000558
H      2.327435    -0.287563    -0.555146      0.000198     0.000398     0.000048
H      2.091931    -0.511180     1.179269      0.000147    -0.000557    -0.000181
H      0.424631     1.328592    -0.630630     -0.000426    -0.000244    -0.000020
H      0.216645     1.204594     1.103308      0.000120     0.000119    -0.000187
H     -0.358375    -1.215938     0.860199      0.000290     0.002085     0.001640
H     -0.143712    -1.099467    -0.871338     -0.000166    -0.002553     0.000792
H     -2.387152     0.036864     0.843402     -0.000686    -0.002621    -0.000049
H     -1.990911     0.859757    -0.663638      0.000015     0.001104     0.002232
H     -2.496151    -0.827975    -0.687875      0.000573     0.001189    -0.002295
14
Iteration 15, Energy=-157.3083256655, |grad|=0.006173
C      1.970683     0.199701     0.360795      0.000477     0.000056     0.000198
C      0.514862     0.636474     0.218336     -0.000414    -0.000290    -0.001708
C     -0.449529    -0.529017     0.002780      0.000567     0.000117    -0.000298
C     -1.911084    -0.092196    -0.132229     -0.000431    -0.000167    -0.000431
H      2.623340     1.052924     0.559715      0.000063    -0.000066     0.000353
H      2.327948    -0.286321    -0.551527      0.000181     0.000367    -0.000314
H      2.091590    -0.510518     1.183268     -0.000233    -0.000172    -0.000421
H      0.426213     1.335089    -0.620669     -0.000128    -0.000138    -0.000221
H      0.213591     1.195016     1.111970      0.000315     0.000319     0.000130
H     -0.356167    -1.226432     0.842085      0.000267     0.002054     0.001650
H     -0.146646    -1.088346    -0.888804     -0.000654    -0.002375     0.001079
H     -2.369508     0.071727     0.846402     -0.000646    -0.002348     0.000089
H     -1.995723     0.842139    -0.694128      0.000095     0.001489     0.002049
H     -2.506999    -0.844581    -0.653308      0.000539     0.001154    -0.002155
14
Iteration 16, Energy=-157.3086973258, |grad|=0.006018
C      1.968561     0.198642     0.363619     -0.000682    -0.000199    -0.000305
C      0.514092     0.637572     0.222680      0.000812     0.000638    -0.002018
C     -0.449085    -0.527192    -0.004468     -0.001079     0.000219     0.000022
C     -1.909086    -0.092077    -0.132212      0.001135     0.000192    -0.000338
H      2.621692     1.051249     0.563624     -0.000211     0.000008     0.000525
H      2.324953    -0.287247    -0.549021      0.000121     0.000152    -0.000118
H      2.090738    -0.512459     1.185468      0.000227    -0.000327    -0.000198
H      0.425741     1.343452    -0.610331     -0.000285    -0.000014    -0.000240
H      0.210860     1.187893     1.120818      0.000125     0.000312     0.000182
H     -0.353759    -1.236005     0.825369      0.000115     0.001548     0.001645
H     -0.146855    -1.073817    -0.904477     -0.000502    -0.002151     0.000699
H     -2.352611     0.105164     0.847483     -0.000669    -0.002287     0.000492
H     -2.000221     0.822144    -0.724993      0.000210     0.001132     0.001840
H     -2.512449    -0.861659    -0.618874      0.000682     0.000778    -0.002187
14
Iteration 17, Energy=-157.3090353885, |grad|=0.005562
C      1.969152     0.199410     0.367721      0.000326     0.000217    -0.000067
C      0.513124     0.634510     0.227003     -0.000105    -0.000165    -0.000908
C     -0.447672    -0.528527    -0.014271      0.001069    -0.000008    -0.001245
C     -1.909289    -0.092035    -0.132955     -0.000772    -0.000146     0.000276
H      2.620463     1.053220     0.568113     -0.000006    -0.000060     0.000024
H      2.326311    -0.282693    -0.546237     -0.000108     0.000618     0.000130
H      2.091657    -0.513510     1.188015     -0.000185    -0.000419    -0.000059
H      0.425966     1.348245    -0.598905     -0.000165    -0.000482     0.000219
H      0.206451     1.175436     1.128728      0.000403    -0.000077    -0.000650
H     -0.350400    -1.245258     0.808160      0.000387     0.002065     0.001366
H     -0.146281    -1.064940    -0.920320     -0.000221    -0.001953     0.001061
H     -2.335018     0.143109     0.845740     -0.000739    -0.001721    -0.000453
H     -2.005807     0.802451    -0.754239      0.000098     0.001114     0.002115
H     -2.526085    -0.873760    -0.581866      0.000018     0.001016    -0.001808
14
Iteration 18, Energy=-157.3093316751, |grad|=0.005033
C      1.968532     0.198517     0.368897      0.000572    -0.000257     0.000014
C      0.511727     0.635935     0.232658     -0.000681    -0.000220    -0.001437
C     -0.447969    -0.526133    -0.018546     -0.000004    -0.000363     0.000519
C     -1.908302    -0.091218    -0.134554      0.000063     0.000145    -0.000892
H      2.621601     1.050451     0.572290      0.000157    -0.000069     0.000376
H      2.325718    -0.283426    -0.546118      0.000692    -0.000240    -0.000524
H      2.090405    -0.515547     1.187570     -0.000272     0.000264    -0.000522
H      0.424894     1.357514    -0.587397      0.000103     0.000209    -0.000532
H      0.203953     1.168505     1.140548     -0.000538     0.000576     0.000780
H     -0.349126    -1.254963     0.793449      0.000498     0.000983     0.001106
H     -0.148974    -1.049809    -0.932367     -0.000978    -0.001197     0.001274
H     -2.318770     0.175351     0.843392     -0.000109    -0.002044     0.000909
H     -2.012796     0.780498    -0.787526     -0.000070     0.001670     0.000630
H     -2.528321    -0.890016    -0.547610      0.000565     0.000544    -0.001702
14
Iteration 19, Energy=-157.3095779060, |grad|=0.005536
C      1.966139     0.198061     0.373025     -0.001245     0.000255     0.000585
C      0.511893     0.635863     0.236785      0.001330     0.000854    -0.001531
C     -0.447148    -0.524585    -0.027831     -0.000999     0.000738    -0.001708
C     -1.906869    -0.092640    -0.134280      0.000723    -0.000598     0.000770
H      2.618288     1.050145     0.578093     -0.000263     0.000064     0.000227
H      2.319285    -0.278442    -0.545288     -0.000847     0.000505     0.000157
H      2.091429    -0.520461     1.188197      0.000446    -0.000480     0.000147
H      0.425585     1.365859    -0.575238     -0.000184    -0.000115     0.000058
H      0.205734     1.158708     1.149163      0.001146    -0.000152    -0.000476
H     -0.349662    -1.260912     0.777562     -0.000691     0.001256     0.001179
H     -0.147883    -1.039093    -0.947952     -0.000274    -0.001692     0.000105
H     -2.303599     0.212545     0.837838     -0.000646    -0.001182     0.000252
H     -2.016144     0.754829    -0.815808      0.001090     0.000329     0.001684
H     -2.534476    -0.904218    -0.509579      0.000414     0.000217    -0.001450
14
Iteration 20, Energy=-157.3097853440, |grad|=0.003219
C      1.967734     0.197581     0.373802      0.000176    -0.000253    -0.000536
C      0.510579     0.633349     0.244386      0.000071    -0.000107    -0.000118
C     -0.446122    -0.525071    -0.032146      0.000303    -0.000423    -0.000416
C     -1.906762    -0.090865    -0.137139      0.000534     0.000495    -0.000349
H      2.618745     1.050253     0.580124     -0.000120     0.000022     0.000047
H      2.322884    -0.276602    -0.545371      0.000333     0.000076     0.000088
H      2.094485    -0.522176     1.187331     -0.000045    -0.000146    -0.000071
H      0.422343     1.370354    -0.561079     -0.000148    -0.000387     0.000014
H      0.199801     1.147279     1.160955     -0.000402     0.000302    -0.000149
H     -0.344410    -1.270823     0.764135      0.000779     0.000825     0.000926
H     -0.146132    -1.027017    -0.958302     -0.000229    -0.000779     0.000585
H     -2.290367     0.249411     0.828523     -0.000629    -0.000785    -0.000183
H     -2.027894     0.732831    -0.845983     -0.000681     0.000691     0.001277
H     -2.542313    -0.912846    -0.474551      0.000056     0.000469    -0.001116
14
Iteration 21, Energy=-157.3099298975, |grad|=0.002675
C      1.966405     0.198278     0.375767      0.000191     0.000256     0.000348
C      0.508759     0.633429     0.249086     -0.000605    -0.000062    -0.000977
C     -0.445938    -0.524293    -0.038152      0.000239     0.000264     0.000290
C     -1.906176    -0.091445    -0.138856     -0.000541    -0.000650     0.000220
H      2.618767     1.049093     0.585655      0.000237    -0.000109    -0.000023
H      2.319753    -0.271184    -0.546637      0.000021     0.000117    -0.000120
H      2.093021    -0.525859     1.185267     -0.000189    -0.000008    -0.000081
H      0.421052     1.380518    -0.547528      0.000311     0.000243    -0.000098
H      0.198404     1.135563     1.172153      0.000007    -0.000074    -0.000033
H     -0.346070    -1.278326     0.750246     -0.000239     0.000512     0.000342
H     -0.146368    -1.016971    -0.969479     -0.000409    -0.000488     0.000421
H     -2.270755     0.284361     0.821123      0.000388    -0.001014     0.000573
H     -2.029604     0.705970    -0.877712      0.000667     0.000903    -0.000161
H     -2.548679    -0.923476    -0.436249     -0.000077     0.000110    -0.000701
14
Iteration 22, Energy=-157.3100141178, |grad|=0.002159
C      1.966831     0.196262     0.376529     -0.000275    -0.000400     0.000330
C      0.509471     0.633119     0.258316      0.000422     0.000270     0.000095
C     -0.445655    -0.521158    -0.042165     -0.000362    -0.000285    -0.000876
C     -1.906246    -0.090366    -0.141762      0.000513     0.000519    -0.000117
H      2.618068     1.047554     0.587833     -0.000305     0.000148     0.000141
H      2.316039    -0.268972    -0.549549     -0.000142    -0.000108    -0.000084
H      2.098972    -0.531013     1.182296      0.000260     0.000080    -0.000103
H      0.418902     1.387832    -0.530628     -0.000195    -0.000266    -0.000172
H      0.202087     1.125962     1.187474      0.000315     0.000309     0.000174
H     -0.344907    -1.283258     0.738557      0.000220     0.000310     0.000302
H     -0.144797    -1.004021    -0.978560     -0.000235    -0.000436    -0.000050
H     -2.265503     0.321577     0.805510     -0.000558    -0.000058     0.000039
H     -2.042700     0.677495    -0.907874     -0.000283    -0.000053     0.000700
H     -2.547989    -0.935354    -0.401292      0.000626    -0.000031    -0.000378
14
Iteration 23, Energy=-157.3100394930, |grad|=0.001964
C      1.966488     0.198212     0.375761     -0.000193     0.000344    -0.000323
C      0.506898     0.629963     0.266151      0.000123    -0.000309    -0.000288
C     -0.445024    -0.524032    -0.044479     -0.000293     0.000400     0.000744
C     -1.904309    -0.090556    -0.145806      0.000742    -0.000729    -0.000133
H      2.617558     1.049024     0.589600      0.000186    -0.000058    -0.000191
H      2.314209    -0.259837    -0.554283      0.000060     0.000049     0.000162
H      2.102593    -0.534472     1.176243     -0.000089    -0.000086     0.000130
H      0.412601     1.395806    -0.511643      0.000287     0.000264     0.000215
H      0.196961     1.108861     1.201516     -0.000444    -0.000060    -0.000198
H     -0.347125    -1.292600     0.730503     -0.000234    -0.000329     0.000237
H     -0.140857    -0.998077    -0.984428      0.000015     0.000272    -0.000376
H     -2.246928     0.360817     0.789403      0.000288     0.000206    -0.000195
H     -2.041952     0.650182    -0.938298      0.000043     0.000030     0.000283
H     -2.558543    -0.937631    -0.365554     -0.000493     0.000006    -0.000066
14
Iteration 24, Energy=-157.3100424664, |grad|=0.001170
C      1.966693     0.196996     0.376013      0.000124    -0.000207     0.000430
C      0.507564     0.631699     0.265692     -0.000380     0.000149    -0.000168
C     -0.445017    -0.521648    -0.044752      0.000462    -0.000162    -0.000053
C     -1.905877    -0.089935    -0.145846     -0.000498     0.000134     0.000089
H      2.618252     1.047071     0.591160     -0.000014     0.000010    -0.000105
H      2.313995    -0.260670    -0.554506     -0.000046    -0.000020    -0.000013
H      2.101547    -0.536388     1.175861      0.000072     0.000018    -0.000005
H      0.413441     1.396537    -0.513135     -0.000070     0.000005    -0.000090
H      0.200618     1.111043     1.201817      0.000167    -0.000108     0.000092
H     -0.345806    -1.288864     0.730897      0.000117     0.000143    -0.000104
H     -0.140853    -0.997642    -0.983419     -0.000034     0.000026     0.000067
H     -2.250834     0.357346     0.790599      0.000066    -0.000149     0.000217